 Entering Gaussian System, Link 0=g09
 Input=xyz1.com
 Output=xyz1.log
 Initial command:
 /opt/programs/gaussian/g09/a_pgi105/l1.exe /scratch/users/diogom/lixo/Gau-19796.inp -scrdir=/scratch/users/diogom/lixo/
 Entering Link 1 = /opt/programs/gaussian/g09/a_pgi105/l1.exe PID=     19798.
  
 Copyright (c) 1988,1990,1992,1993,1995,1998,2003,2009, Gaussian, Inc.
                  All Rights Reserved.
  
 This is part of the Gaussian(R) 09 program.  It is based on
 the Gaussian(R) 03 system (copyright 2003, Gaussian, Inc.),
 the Gaussian(R) 98 system (copyright 1998, Gaussian, Inc.),
 the Gaussian(R) 94 system (copyright 1995, Gaussian, Inc.),
 the Gaussian 92(TM) system (copyright 1992, Gaussian, Inc.),
 the Gaussian 90(TM) system (copyright 1990, Gaussian, Inc.),
 the Gaussian 88(TM) system (copyright 1988, Gaussian, Inc.),
 the Gaussian 86(TM) system (copyright 1986, Carnegie Mellon
 University), and the Gaussian 82(TM) system (copyright 1983,
 Carnegie Mellon University). Gaussian is a federally registered
 trademark of Gaussian, Inc.
  
 This software contains proprietary and confidential information,
 including trade secrets, belonging to Gaussian, Inc.
  
 This software is provided under written license and may be
 used, copied, transmitted, or stored only in accord with that
 written license.
  
 The following legend is applicable only to US Government
 contracts under FAR:
  
                    RESTRICTED RIGHTS LEGEND
  
 Use, reproduction and disclosure by the US Government is
 subject to restrictions as set forth in subparagraphs (a)
 and (c) of the Commercial Computer Software - Restricted
 Rights clause in FAR 52.227-19.
  
 Gaussian, Inc.
 340 Quinnipiac St., Bldg. 40, Wallingford CT 06492
  
  
 ---------------------------------------------------------------
 Warning -- This program may not be used in any manner that
 competes with the business of Gaussian, Inc. or will provide
 assistance to any competitor of Gaussian, Inc.  The licensee
 of this program is prohibited from giving any competitor of
 Gaussian, Inc. access to this program.  By using this program,
 the user acknowledges that Gaussian, Inc. is engaged in the
 business of creating and licensing software in the field of
 computational chemistry and represents and warrants to the
 licensee that it is not a competitor of Gaussian, Inc. and that
 it will not use this program in any manner prohibited above.
 ---------------------------------------------------------------
  

 Cite this work as:
 Gaussian 09, Revision A.02,
 M. J. Frisch, G. W. Trucks, H. B. Schlegel, G. E. Scuseria, 
 M. A. Robb, J. R. Cheeseman, G. Scalmani, V. Barone, B. Mennucci, 
 G. A. Petersson, H. Nakatsuji, M. Caricato, X. Li, H. P. Hratchian, 
 A. F. Izmaylov, J. Bloino, G. Zheng, J. L. Sonnenberg, M. Hada, 
 M. Ehara, K. Toyota, R. Fukuda, J. Hasegawa, M. Ishida, T. Nakajima, 
 Y. Honda, O. Kitao, H. Nakai, T. Vreven, J. A. Montgomery, Jr., 
 J. E. Peralta, F. Ogliaro, M. Bearpark, J. J. Heyd, E. Brothers, 
 K. N. Kudin, V. N. Staroverov, R. Kobayashi, J. Normand, 
 K. Raghavachari, A. Rendell, J. C. Burant, S. S. Iyengar, J. Tomasi, 
 M. Cossi, N. Rega, J. M. Millam, M. Klene, J. E. Knox, J. B. Cross, 
 V. Bakken, C. Adamo, J. Jaramillo, R. Gomperts, R. E. Stratmann, 
 O. Yazyev, A. J. Austin, R. Cammi, C. Pomelli, J. W. Ochterski, 
 R. L. Martin, K. Morokuma, V. G. Zakrzewski, G. A. Voth, 
 P. Salvador, J. J. Dannenberg, S. Dapprich, A. D. Daniels, 
 O. Farkas, J. B. Foresman, J. V. Ortiz, J. Cioslowski, 
 and D. J. Fox, Gaussian, Inc., Wallingford CT, 2009.
 
 ******************************************
 Gaussian 09:  AM64L-G09RevA.02 11-Jun-2009
                 2-Jul-2014 
 ******************************************
 %chk=xyz1.chk
 --------------------------------------
 # opt b3lyp/6-31g(d) geom=connectivity
 --------------------------------------
 1/14=-1,18=20,19=15,26=3,38=1,57=2/1,3;
 2/9=110,12=2,17=6,18=5,40=1/2;
 3/5=1,6=6,7=1,11=2,16=1,25=1,30=1,71=1,74=-5/1,2,3;
 4//1;
 5/5=2,38=5/2;
 6/7=2,8=2,9=2,10=2,28=1/1;
 7//1,2,3,16;
 1/14=-1,18=20,19=15/3(2);
 2/9=110/2;
 99//99;
 2/9=110/2;
 3/5=1,6=6,7=1,11=2,16=1,25=1,30=1,71=1,74=-5/1,2,3;
 4/5=5,16=3/1;
 5/5=2,38=5/2;
 7//1,2,3,16;
 1/14=-1,18=20,19=15/3(-5);
 2/9=110/2;
 6/7=2,8=2,9=2,10=2,19=2,28=1/1;
 99/9=1/99;
 -------------------
 Title Card Required
 -------------------
 Symbolic Z-matrix:
 Charge = -1 Multiplicity = 1
 C                     0.33516  -0.31868   0. 
 H                     0.69182  -1.32749   0. 
 H                     0.69184   0.18572  -0.87365 
 C                    -1.20484  -0.31866   0. 
 O                    -1.85323   0.65971   0.56192 
 O                    -1.85327  -1.29701  -0.56192 
 C                     0.84851   0.40727   1.2574 
 H                     1.90428   0.25922   1.34869 
 H                     0.64092   1.45369   1.17484 
 H                     0.357     0.01331   2.12234 
 C                    -4.76993  -1.10053   2.83347 
 C                    -6.30993  -1.10053   2.83347 
 H                    -6.6666   -0.22688   3.33787 
 H                    -6.6666   -1.97419   3.33787 
 C                    -6.82326  -1.10053   1.38154 
 H                    -6.60343  -2.0432    0.92552 
 H                    -7.88119  -0.94034   1.37727 
 H                    -6.34183  -0.31807   0.83303 
 O                    -4.12151   0.01516   3.0013 
 H                    -3.5829    0.19242   2.22666 
 O                    -4.12151  -2.21623   2.66563 
 

 GradGradGradGradGradGradGradGradGradGradGradGradGradGradGradGradGradGrad
 Berny optimization.
 Initialization pass.
                           ----------------------------
                           !    Initial Parameters    !
                           ! (Angstroms and Degrees)  !
 --------------------------                            --------------------------
 ! Name  Definition              Value          Derivative Info.                !
 --------------------------------------------------------------------------------
 ! R1    R(1,2)                  1.07           estimate D2E/DX2                !
 ! R2    R(1,3)                  1.07           estimate D2E/DX2                !
 ! R3    R(1,4)                  1.54           estimate D2E/DX2                !
 ! R4    R(1,7)                  1.54           estimate D2E/DX2                !
 ! R5    R(4,5)                  1.3013         estimate D2E/DX2                !
 ! R6    R(4,6)                  1.3013         estimate D2E/DX2                !
 ! R7    R(5,20)                 2.4457         estimate D2E/DX2                !
 ! R8    R(7,8)                  1.07           estimate D2E/DX2                !
 ! R9    R(7,9)                  1.07           estimate D2E/DX2                !
 ! R10   R(7,10)                 1.07           estimate D2E/DX2                !
 ! R11   R(11,12)                1.54           estimate D2E/DX2                !
 ! R12   R(11,19)                1.3013         estimate D2E/DX2                !
 ! R13   R(11,21)                1.3013         estimate D2E/DX2                !
 ! R14   R(12,13)                1.07           estimate D2E/DX2                !
 ! R15   R(12,14)                1.07           estimate D2E/DX2                !
 ! R16   R(12,15)                1.54           estimate D2E/DX2                !
 ! R17   R(15,16)                1.07           estimate D2E/DX2                !
 ! R18   R(15,17)                1.07           estimate D2E/DX2                !
 ! R19   R(15,18)                1.07           estimate D2E/DX2                !
 ! R20   R(19,20)                0.96           estimate D2E/DX2                !
 ! A1    A(2,1,3)              109.4712         estimate D2E/DX2                !
 ! A2    A(2,1,4)              109.4712         estimate D2E/DX2                !
 ! A3    A(2,1,7)              109.4712         estimate D2E/DX2                !
 ! A4    A(3,1,4)              109.4712         estimate D2E/DX2                !
 ! A5    A(3,1,7)              109.4713         estimate D2E/DX2                !
 ! A6    A(4,1,7)              109.4712         estimate D2E/DX2                !
 ! A7    A(1,4,5)              119.886          estimate D2E/DX2                !
 ! A8    A(1,4,6)              119.887          estimate D2E/DX2                !
 ! A9    A(5,4,6)              120.2269         estimate D2E/DX2                !
 ! A10   A(4,5,20)             120.1763         estimate D2E/DX2                !
 ! A11   A(1,7,8)              109.4712         estimate D2E/DX2                !
 ! A12   A(1,7,9)              109.4712         estimate D2E/DX2                !
 ! A13   A(1,7,10)             109.4712         estimate D2E/DX2                !
 ! A14   A(8,7,9)              109.4713         estimate D2E/DX2                !
 ! A15   A(8,7,10)             109.4712         estimate D2E/DX2                !
 ! A16   A(9,7,10)             109.4712         estimate D2E/DX2                !
 ! A17   A(12,11,19)           119.8865         estimate D2E/DX2                !
 ! A18   A(12,11,21)           119.8865         estimate D2E/DX2                !
 ! A19   A(19,11,21)           120.2269         estimate D2E/DX2                !
 ! A20   A(11,12,13)           109.4712         estimate D2E/DX2                !
 ! A21   A(11,12,14)           109.4712         estimate D2E/DX2                !
 ! A22   A(11,12,15)           109.4712         estimate D2E/DX2                !
 ! A23   A(13,12,14)           109.4712         estimate D2E/DX2                !
 ! A24   A(13,12,15)           109.4713         estimate D2E/DX2                !
 ! A25   A(14,12,15)           109.4712         estimate D2E/DX2                !
 ! A26   A(12,15,16)           109.4712         estimate D2E/DX2                !
 ! A27   A(12,15,17)           109.4712         estimate D2E/DX2                !
 ! A28   A(12,15,18)           109.4712         estimate D2E/DX2                !
 ! A29   A(16,15,17)           109.4713         estimate D2E/DX2                !
 ! A30   A(16,15,18)           109.4712         estimate D2E/DX2                !
 ! A31   A(17,15,18)           109.4712         estimate D2E/DX2                !
 ! A32   A(11,19,20)           109.5            estimate D2E/DX2                !
 ! A33   A(5,20,19)            168.9109         estimate D2E/DX2                !
 ! D1    D(2,1,4,5)            150.1294         estimate D2E/DX2                !
 ! D2    D(2,1,4,6)            -29.8708         estimate D2E/DX2                !
 ! D3    D(3,1,4,5)            -89.8706         estimate D2E/DX2                !
 ! D4    D(3,1,4,6)             90.1292         estimate D2E/DX2                !
 ! D5    D(7,1,4,5)             30.1294         estimate D2E/DX2                !
 ! D6    D(7,1,4,6)           -149.8708         estimate D2E/DX2                !
 ! D7    D(2,1,7,8)             50.0765         estimate D2E/DX2                !
 ! D8    D(2,1,7,9)            170.0765         estimate D2E/DX2                !
 ! D9    D(2,1,7,10)           -69.9235         estimate D2E/DX2                !
 ! D10   D(3,1,7,8)            -69.9235         estimate D2E/DX2                !
 ! D11   D(3,1,7,9)             50.0765         estimate D2E/DX2                !
 ! D12   D(3,1,7,10)           170.0765         estimate D2E/DX2                !
 ! D13   D(4,1,7,8)            170.0765         estimate D2E/DX2                !
 ! D14   D(4,1,7,9)            -69.9235         estimate D2E/DX2                !
 ! D15   D(4,1,7,10)            50.0765         estimate D2E/DX2                !
 ! D16   D(1,4,5,20)          -127.5461         estimate D2E/DX2                !
 ! D17   D(6,4,5,20)            52.4542         estimate D2E/DX2                !
 ! D18   D(4,5,20,19)           88.5828         estimate D2E/DX2                !
 ! D19   D(19,11,12,13)        -21.4449         estimate D2E/DX2                !
 ! D20   D(19,11,12,14)       -141.4449         estimate D2E/DX2                !
 ! D21   D(19,11,12,15)         98.5551         estimate D2E/DX2                !
 ! D22   D(21,11,12,13)        158.5551         estimate D2E/DX2                !
 ! D23   D(21,11,12,14)         38.5551         estimate D2E/DX2                !
 ! D24   D(21,11,12,15)        -81.4449         estimate D2E/DX2                !
 ! D25   D(12,11,19,20)       -118.88           estimate D2E/DX2                !
 ! D26   D(21,11,19,20)         61.12           estimate D2E/DX2                !
 ! D27   D(11,12,15,16)         69.1371         estimate D2E/DX2                !
 ! D28   D(11,12,15,17)       -170.8629         estimate D2E/DX2                !
 ! D29   D(11,12,15,18)        -50.8629         estimate D2E/DX2                !
 ! D30   D(13,12,15,16)       -170.8629         estimate D2E/DX2                !
 ! D31   D(13,12,15,17)        -50.8629         estimate D2E/DX2                !
 ! D32   D(13,12,15,18)         69.1371         estimate D2E/DX2                !
 ! D33   D(14,12,15,16)        -50.8629         estimate D2E/DX2                !
 ! D34   D(14,12,15,17)         69.1371         estimate D2E/DX2                !
 ! D35   D(14,12,15,18)       -170.8629         estimate D2E/DX2                !
 ! D36   D(11,19,20,5)        -123.7949         estimate D2E/DX2                !
 --------------------------------------------------------------------------------
 Trust Radius=3.00D-01 FncErr=1.00D-07 GrdErr=1.00D-06
 Number of steps in this run=  99 maximum allowed number of steps= 126.
 GradGradGradGradGradGradGradGradGradGradGradGradGradGradGradGradGradGrad

                          Input orientation:                          
 ---------------------------------------------------------------------
 Center     Atomic      Atomic             Coordinates (Angstroms)
 Number     Number       Type             X           Y           Z
 ---------------------------------------------------------------------
      1          6           0        0.335165   -0.318681    0.000000
      2          1           0        0.691819   -1.327491    0.000000
      3          1           0        0.691838    0.185717   -0.873652
      4          6           0       -1.204835   -0.318662    0.000000
      5          8           0       -1.853230    0.659711    0.561917
      6          8           0       -1.853274   -1.297008   -0.561915
      7          6           0        0.848507    0.407275    1.257405
      8          1           0        1.904275    0.259218    1.348687
      9          1           0        0.640916    1.453692    1.174837
     10          1           0        0.357002    0.013313    2.122342
     11          6           0       -4.769930   -1.100534    2.833466
     12          6           0       -6.309930   -1.100534    2.833466
     13          1           0       -6.666597   -0.226883    3.337869
     14          1           0       -6.666597   -1.974186    3.337869
     15          6           0       -6.823263   -1.100534    1.381540
     16          1           0       -6.603430   -2.043198    0.925515
     17          1           0       -7.881195   -0.940338    1.377273
     18          1           0       -6.341831   -0.318067    0.833026
     19          8           0       -4.121514    0.015157    3.001304
     20          1           0       -3.582896    0.192423    2.226663
     21          8           0       -4.121514   -2.216226    2.665628
 ---------------------------------------------------------------------
                    Distance matrix (angstroms):
                    1          2          3          4          5
     1  C    0.000000
     2  H    1.070000   0.000000
     3  H    1.070000   1.747302   0.000000
     4  C    1.540000   2.148263   2.148263   0.000000
     5  O    2.462128   3.277499   2.960219   1.301300   0.000000
     6  O    2.462140   2.606564   2.961966   1.301300   2.256490
     7  C    1.540000   2.148263   2.148263   2.514809   2.801216
     8  H    2.148263   2.409700   2.532626   3.437946   3.859825
     9  H    2.148263   3.019572   2.409701   2.815720   2.688279
    10  H    2.148263   2.532626   3.019572   2.655914   2.781705
    11  C    5.890825   6.157170   6.725182   4.620580   4.094574
    12  C    7.266162   7.556754   8.026327   5.890828   5.302884
    13  H    7.757220   8.154692   8.488445   6.401612   5.626763
    14  H    7.931377   8.105916   8.749208   6.611578   6.149132
    15  C    7.332328   7.644385   7.950916   5.838383   5.335867
    16  H    7.209343   7.388469   7.837473   5.742423   5.477437
    17  H    8.354155   8.691567   8.934850   6.845227   6.289779
    18  H    6.728760   7.154377   7.255277   5.204101   4.601857
    19  O    5.383424   5.829126   6.181644   4.198366   3.392812
    20  H    4.535467   5.053846   5.280658   3.297638   2.445707
    21  O    5.528854   5.573472   6.439268   4.383301   4.223946
                    6          7          8          9         10
     6  O    0.000000
     7  C    3.676157   0.000000
     8  H    4.493486   1.070000   0.000000
     9  H    4.099225   1.070000   1.747303   0.000000
    10  H    3.715844   1.070000   1.747303   1.747303   0.000000
    11  C    4.480413   6.026964   6.971264   6.209057   5.294506
    12  C    5.606158   7.483360   8.457344   7.588767   6.796642
    13  H    6.286618   7.823508   8.812093   7.804024   7.132050
    14  H    6.231771   8.153311   9.077709   8.356363   7.399906
    15  C    5.340076   7.819524   8.832889   7.891817   7.303811
    16  H    5.033213   7.851518   8.823902   8.048040   7.355899
    17  H    6.342200   8.833919   9.858762   8.854306   8.326612
    18  H    4.801181   7.239281   8.282357   7.212124   6.829826
    19  O    4.423033   5.281671   6.253067   5.299632   4.563954
    20  H    3.603633   4.541251   5.557370   4.531858   3.945347
    21  O    4.050544   5.793699   6.646224   6.194473   5.032207
                   11         12         13         14         15
    11  C    0.000000
    12  C    1.540000   0.000000
    13  H    2.148263   1.070000   0.000000
    14  H    2.148263   1.070000   1.747303   0.000000
    15  C    2.514809   1.540000   2.148263   2.148263   0.000000
    16  H    2.809023   2.148263   3.020338   2.414167   1.070000
    17  H    3.438914   2.148263   2.414167   2.527454   1.070000
    18  H    2.661746   2.148263   2.527454   3.020338   1.070000
    19  O    1.301300   2.462134   2.578625   3.247801   3.341834
    20  H    1.857147   3.078419   3.304512   3.929145   3.589700
    21  O    1.301300   2.462134   3.299521   2.643472   3.192663
                   16         17         18         19         20
    16  H    0.000000
    17  H    1.747303   0.000000
    18  H    1.747303   1.747303   0.000000
    19  O    3.834793   4.205431   3.121263   0.000000
    20  H    3.976758   4.525481   3.132818   0.960000   0.000000
    21  O    3.036089   4.174081   3.448369   2.256490   2.506868
                   21
    21  O    0.000000
 Stoichiometry    C6H11O4(1-)
 Framework group  C1[X(C6H11O4)]
 Deg. of freedom    57
 Full point group                 C1      NOp   1
 Largest Abelian subgroup         C1      NOp   1
 Largest concise Abelian subgroup C1      NOp   1
                         Standard orientation:                         
 ---------------------------------------------------------------------
 Center     Atomic      Atomic             Coordinates (Angstroms)
 Number     Number       Type             X           Y           Z
 ---------------------------------------------------------------------
      1          6           0       -3.603758    0.320290    0.247842
      2          1           0       -3.759239    0.543472    1.282692
      3          1           0       -4.307632    0.866692   -0.344533
      4          6           0       -2.172660    0.722275   -0.154607
      5          8           0       -1.557808    0.071760   -1.099154
      6          8           0       -1.582385    1.711297    0.451028
      7          6           0       -3.798029   -1.189320    0.013456
      8          1           0       -4.723597   -1.501833    0.449987
      9          1           0       -3.814513   -1.387818   -1.037842
     10          1           0       -2.990957   -1.727194    0.465370
     11          6           0        2.199238   -0.688938    0.340110
     12          6           0        3.630340   -0.286946   -0.062321
     13          1           0        3.973631   -0.928270   -0.847022
     14          1           0        4.278390   -0.380458    0.783957
     15          6           0        3.634650    1.172658   -0.553377
     16          1           0        3.446304    1.827167    0.271877
     17          1           0        4.588442    1.402485   -0.980414
     18          1           0        2.872199    1.302464   -1.292782
     19          8           0        1.456723   -1.361222   -0.490605
     20          1           0        0.673065   -0.850148   -0.705741
     21          8           0        1.736623   -0.355170    1.509711
 ---------------------------------------------------------------------
 Rotational constants (GHZ):      2.3022572      0.4378844      0.4141685
 Standard basis: 6-31G(d) (6D, 7F)
 There are   172 symmetry adapted basis functions of A   symmetry.
 Integral buffers will be    131072 words long.
 Raffenetti 2 integral format.
 Two-electron integral symmetry is turned on.
   172 basis functions,   324 primitive gaussians,   172 cartesian basis functions
    40 alpha electrons       40 beta electrons
       nuclear repulsion energy       501.7223674858 Hartrees.
 NAtoms=   21 NActive=   21 NUniq=   21 SFac= 7.50D-01 NAtFMM=   80 NAOKFM=F Big=F
 One-electron integrals computed using PRISM.
 NBasis=   172 RedAO= T  NBF=   172
 NBsUse=   172 1.00D-06 NBFU=   172
 Harris functional with IExCor=  402 diagonalized for initial guess.
 ExpMin= 1.61D-01 ExpMax= 5.48D+03 ExpMxC= 8.25D+02 IAcc=1 IRadAn=         1 AccDes= 0.00D+00
 HarFok:  IExCor=  402 AccDes= 0.00D+00 IRadAn=         1 IDoV= 1
 ScaDFX=  1.000000  1.000000  1.000000  1.000000
 FoFCou: FMM=F IPFlag=           0 FMFlag=      100000 FMFlg1=           0
         NFxFlg=           0 DoJE=T BraDBF=F KetDBF=T FulRan=T
         Omega=  0.000000  0.000000  1.000000  0.000000  0.000000 ICntrl=     500 IOpCl=  0
         NMat0=    1 NMatS0=    1 NMatT0=    0 NMatD0=    1 NMtDS0=    0 NMtDT0=    0
         I1Cent=           4 NGrid=           0.
 Petite list used in FoFCou.
 Initial guess orbital symmetries:
       Occupied  (A) (A) (A) (A) (A) (A) (A) (A) (A) (A) (A) (A)
                 (A) (A) (A) (A) (A) (A) (A) (A) (A) (A) (A) (A)
                 (A) (A) (A) (A) (A) (A) (A) (A) (A) (A) (A) (A)
                 (A) (A) (A) (A)
       Virtual   (A) (A) (A) (A) (A) (A) (A) (A) (A) (A) (A) (A)
                 (A) (A) (A) (A) (A) (A) (A) (A) (A) (A) (A) (A)
                 (A) (A) (A) (A) (A) (A) (A) (A) (A) (A) (A) (A)
                 (A) (A) (A) (A) (A) (A) (A) (A) (A) (A) (A) (A)
                 (A) (A) (A) (A) (A) (A) (A) (A) (A) (A) (A) (A)
                 (A) (A) (A) (A) (A) (A) (A) (A) (A) (A) (A) (A)
                 (A) (A) (A) (A) (A) (A) (A) (A) (A) (A) (A) (A)
                 (A) (A) (A) (A) (A) (A) (A) (A) (A) (A) (A) (A)
                 (A) (A) (A) (A) (A) (A) (A) (A) (A) (A) (A) (A)
                 (A) (A) (A) (A) (A) (A) (A) (A) (A) (A) (A) (A)
                 (A) (A) (A) (A) (A) (A) (A) (A) (A) (A) (A) (A)
 The electronic state of the initial guess is 1-A.
 Requested convergence on RMS density matrix=1.00D-08 within 128 cycles.
 Requested convergence on MAX density matrix=1.00D-06.
 Requested convergence on             energy=1.00D-06.
 No special actions if energy rises.
 Integral accuracy reduced to 1.0D-05 until final iterations.
 EnCoef did     7 forward-backward iterations
 EnCoef did     2 forward-backward iterations
 Initial convergence to 1.0D-05 achieved.  Increase integral accuracy.
 SCF Done:  E(RB3LYP) =  -536.185767853     A.U. after   18 cycles
             Convg  =    0.5412D-08             -V/T =  2.0089

 **********************************************************************

            Population analysis using the SCF density.

 **********************************************************************

 Orbital symmetries:
       Occupied  (A) (A) (A) (A) (A) (A) (A) (A) (A) (A) (A) (A)
                 (A) (A) (A) (A) (A) (A) (A) (A) (A) (A) (A) (A)
                 (A) (A) (A) (A) (A) (A) (A) (A) (A) (A) (A) (A)
                 (A) (A) (A) (A)
       Virtual   (A) (A) (A) (A) (A) (A) (A) (A) (A) (A) (A) (A)
                 (A) (A) (A) (A) (A) (A) (A) (A) (A) (A) (A) (A)
                 (A) (A) (A) (A) (A) (A) (A) (A) (A) (A) (A) (A)
                 (A) (A) (A) (A) (A) (A) (A) (A) (A) (A) (A) (A)
                 (A) (A) (A) (A) (A) (A) (A) (A) (A) (A) (A) (A)
                 (A) (A) (A) (A) (A) (A) (A) (A) (A) (A) (A) (A)
                 (A) (A) (A) (A) (A) (A) (A) (A) (A) (A) (A) (A)
                 (A) (A) (A) (A) (A) (A) (A) (A) (A) (A) (A) (A)
                 (A) (A) (A) (A) (A) (A) (A) (A) (A) (A) (A) (A)
                 (A) (A) (A) (A) (A) (A) (A) (A) (A) (A) (A) (A)
                 (A) (A) (A) (A) (A) (A) (A) (A) (A) (A) (A) (A)
 The electronic state is 1-A.
 Alpha  occ. eigenvalues --  -19.05682 -18.99814 -18.87860 -18.86520 -10.19789
 Alpha  occ. eigenvalues --  -10.09395 -10.08201 -10.06639 -10.01792 -10.01305
 Alpha  occ. eigenvalues --   -0.97526  -0.84062  -0.78366  -0.69019  -0.68161
 Alpha  occ. eigenvalues --   -0.60413  -0.55941  -0.48836  -0.47468  -0.39134
 Alpha  occ. eigenvalues --   -0.36372  -0.33956  -0.31956  -0.30927  -0.29760
 Alpha  occ. eigenvalues --   -0.29261  -0.27512  -0.26148  -0.25078  -0.21726
 Alpha  occ. eigenvalues --   -0.20988  -0.20710  -0.19132  -0.17155  -0.16062
 Alpha  occ. eigenvalues --   -0.14126  -0.12645  -0.03277  -0.02337  -0.00062
 Alpha virt. eigenvalues --    0.10683   0.20122   0.23801   0.24547   0.24858
 Alpha virt. eigenvalues --    0.25568   0.26701   0.27556   0.30054   0.30400
 Alpha virt. eigenvalues --    0.31215   0.32155   0.32745   0.34316   0.35566
 Alpha virt. eigenvalues --    0.38917   0.43247   0.44515   0.47428   0.54564
 Alpha virt. eigenvalues --    0.57728   0.62162   0.63874   0.64185   0.67742
 Alpha virt. eigenvalues --    0.68880   0.70321   0.71168   0.72410   0.74958
 Alpha virt. eigenvalues --    0.76151   0.77826   0.79584   0.81305   0.83036
 Alpha virt. eigenvalues --    0.85203   0.87529   0.90705   0.92208   0.93422
 Alpha virt. eigenvalues --    0.94315   0.98774   0.99411   1.00040   1.00189
 Alpha virt. eigenvalues --    1.04314   1.04956   1.05697   1.06327   1.07831
 Alpha virt. eigenvalues --    1.08947   1.09632   1.11657   1.12837   1.13780
 Alpha virt. eigenvalues --    1.13884   1.16311   1.18625   1.20483   1.23978
 Alpha virt. eigenvalues --    1.27420   1.29406   1.30771   1.31196   1.32204
 Alpha virt. eigenvalues --    1.40712   1.48999   1.49862   1.57164   1.58739
 Alpha virt. eigenvalues --    1.64176   1.67414   1.68160   1.73062   1.74208
 Alpha virt. eigenvalues --    1.76547   1.81017   1.84695   1.88052   1.90184
 Alpha virt. eigenvalues --    1.91811   1.96697   1.98024   1.98620   2.02995
 Alpha virt. eigenvalues --    2.03233   2.03941   2.06802   2.08732   2.09496
 Alpha virt. eigenvalues --    2.10085   2.10869   2.12054   2.15577   2.16220
 Alpha virt. eigenvalues --    2.21591   2.22955   2.25319   2.32997   2.36733
 Alpha virt. eigenvalues --    2.40084   2.42079   2.44671   2.46028   2.47029
 Alpha virt. eigenvalues --    2.47806   2.52964   2.60900   2.62426   2.69913
 Alpha virt. eigenvalues --    2.71446   2.73481   2.76966   2.77653   2.84914
 Alpha virt. eigenvalues --    2.93377   2.99253   3.01590   3.09497   3.13715
 Alpha virt. eigenvalues --    3.17110   3.28457   3.95234   4.04997   4.17714
 Alpha virt. eigenvalues --    4.22400   4.28922   4.33466   4.39327   4.46873
 Alpha virt. eigenvalues --    4.62692   4.71472
          Condensed to atoms (all electrons):
              1          2          3          4          5          6
     1  C    5.436251   0.338362   0.350035   0.231017  -0.124232  -0.108817
     2  H    0.338362   0.630734  -0.035980  -0.015751   0.003206   0.007542
     3  H    0.350035  -0.035980   0.635475  -0.018855   0.001360   0.001084
     4  C    0.231017  -0.015751  -0.018855   4.362830   0.430580   0.504574
     5  O   -0.124232   0.003206   0.001360   0.430580   8.382708  -0.101937
     6  O   -0.108817   0.007542   0.001084   0.504574  -0.101937   8.335027
     7  C    0.297698  -0.041331  -0.038484  -0.027103   0.011162   0.002972
     8  H   -0.032479  -0.004781  -0.001370   0.004990   0.000921  -0.000063
     9  H   -0.029790   0.005988  -0.006430  -0.000030   0.009556   0.000157
    10  H   -0.040012  -0.002762   0.005842  -0.002105   0.003895   0.000243
    11  C    0.000001   0.000000   0.000000   0.000264  -0.000719   0.000161
    12  C    0.000000   0.000000   0.000000   0.000004  -0.000005   0.000001
    13  H    0.000000   0.000000   0.000000   0.000000   0.000000   0.000000
    14  H    0.000000   0.000000   0.000000   0.000000   0.000000   0.000000
    15  C    0.000000   0.000000   0.000000  -0.000001  -0.000002  -0.000002
    16  H    0.000000   0.000000   0.000000   0.000000   0.000000   0.000001
    17  H    0.000000   0.000000   0.000000   0.000000   0.000000   0.000000
    18  H    0.000000   0.000000   0.000000   0.000007   0.000020   0.000007
    19  O   -0.000013   0.000000   0.000000  -0.000220  -0.003792   0.000002
    20  H    0.000558  -0.000029  -0.000001   0.002163   0.042591  -0.000413
    21  O    0.000001   0.000000   0.000000   0.000182  -0.000013  -0.000056
              7          8          9         10         11         12
     1  C    0.297698  -0.032479  -0.029790  -0.040012   0.000001   0.000000
     2  H   -0.041331  -0.004781   0.005988  -0.002762   0.000000   0.000000
     3  H   -0.038484  -0.001370  -0.006430   0.005842   0.000000   0.000000
     4  C   -0.027103   0.004990  -0.000030  -0.002105   0.000264   0.000004
     5  O    0.011162   0.000921   0.009556   0.003895  -0.000719  -0.000005
     6  O    0.002972  -0.000063   0.000157   0.000243   0.000161   0.000001
     7  C    5.136403   0.323048   0.368224   0.390371  -0.000001   0.000000
     8  H    0.323048   0.706682  -0.035334  -0.037537   0.000000   0.000000
     9  H    0.368224  -0.035334   0.579365  -0.028251   0.000000   0.000000
    10  H    0.390371  -0.037537  -0.028251   0.566792  -0.000001   0.000000
    11  C   -0.000001   0.000000   0.000000  -0.000001   4.410537   0.329591
    12  C    0.000000   0.000000   0.000000   0.000000   0.329591   5.195413
    13  H    0.000000   0.000000   0.000000   0.000000  -0.023768   0.333209
    14  H    0.000000   0.000000   0.000000   0.000000  -0.023928   0.358806
    15  C    0.000000   0.000000   0.000000   0.000000  -0.030209   0.370629
    16  H    0.000000   0.000000   0.000000   0.000000  -0.001625  -0.036621
    17  H    0.000000   0.000000   0.000000   0.000000   0.004140  -0.032418
    18  H    0.000000   0.000000   0.000000   0.000000  -0.004903  -0.039681
    19  O    0.000001   0.000000   0.000002   0.000003   0.321150  -0.091741
    20  H   -0.000039   0.000000  -0.000052   0.000062  -0.016888   0.005335
    21  O    0.000000   0.000000   0.000000   0.000001   0.503132  -0.082512
             13         14         15         16         17         18
     1  C    0.000000   0.000000   0.000000   0.000000   0.000000   0.000000
     2  H    0.000000   0.000000   0.000000   0.000000   0.000000   0.000000
     3  H    0.000000   0.000000   0.000000   0.000000   0.000000   0.000000
     4  C    0.000000   0.000000  -0.000001   0.000000   0.000000   0.000007
     5  O    0.000000   0.000000  -0.000002   0.000000   0.000000   0.000020
     6  O    0.000000   0.000000  -0.000002   0.000001   0.000000   0.000007
     7  C    0.000000   0.000000   0.000000   0.000000   0.000000   0.000000
     8  H    0.000000   0.000000   0.000000   0.000000   0.000000   0.000000
     9  H    0.000000   0.000000   0.000000   0.000000   0.000000   0.000000
    10  H    0.000000   0.000000   0.000000   0.000000   0.000000   0.000000
    11  C   -0.023768  -0.023928  -0.030209  -0.001625   0.004140  -0.004903
    12  C    0.333209   0.358806   0.370629  -0.036621  -0.032418  -0.039681
    13  H    0.617945  -0.035949  -0.035368   0.005968  -0.006013  -0.002326
    14  H   -0.035949   0.578877  -0.031211  -0.005629  -0.002707   0.005509
    15  C   -0.035368  -0.031211   5.044277   0.383006   0.369180   0.386900
    16  H    0.005968  -0.005629   0.383006   0.532001  -0.032271  -0.025982
    17  H   -0.006013  -0.002707   0.369180  -0.032271   0.605949  -0.032190
    18  H   -0.002326   0.005509   0.386900  -0.025982  -0.032190   0.533105
    19  O    0.006713   0.003065  -0.001159   0.000175  -0.000111   0.002986
    20  H   -0.000395  -0.000085  -0.000455  -0.000030   0.000014   0.000241
    21  O    0.003696   0.002443  -0.002154   0.004392   0.000017  -0.000092
             19         20         21
     1  C   -0.000013   0.000558   0.000001
     2  H    0.000000  -0.000029   0.000000
     3  H    0.000000  -0.000001   0.000000
     4  C   -0.000220   0.002163   0.000182
     5  O   -0.003792   0.042591  -0.000013
     6  O    0.000002  -0.000413  -0.000056
     7  C    0.000001  -0.000039   0.000000
     8  H    0.000000   0.000000   0.000000
     9  H    0.000002  -0.000052   0.000000
    10  H    0.000003   0.000062   0.000001
    11  C    0.321150  -0.016888   0.503132
    12  C   -0.091741   0.005335  -0.082512
    13  H    0.006713  -0.000395   0.003696
    14  H    0.003065  -0.000085   0.002443
    15  C   -0.001159  -0.000455  -0.002154
    16  H    0.000175  -0.000030   0.004392
    17  H   -0.000111   0.000014   0.000017
    18  H    0.002986   0.000241  -0.000092
    19  O    8.222758   0.194752  -0.087151
    20  H    0.194752   0.326828  -0.000323
    21  O   -0.087151  -0.000323   8.141601
 Mulliken atomic charges:
              1
     1  C   -0.318581
     2  H    0.114801
     3  H    0.107325
     4  C    0.527454
     5  O   -0.655300
     6  O   -0.640482
     7  C   -0.422921
     8  H    0.075922
     9  H    0.136594
    10  H    0.143461
    11  C    0.533066
    12  C   -0.310009
    13  H    0.136288
    14  H    0.150808
    15  C   -0.453429
    16  H    0.176614
    17  H    0.126410
    18  H    0.176398
    19  O   -0.567419
    20  H    0.446164
    21  O   -0.483164
 Sum of Mulliken atomic charges =  -1.00000
 Mulliken charges with hydrogens summed into heavy atoms:
              1
     1  C   -0.096456
     4  C    0.527454
     5  O   -0.655300
     6  O   -0.640482
     7  C   -0.066944
    11  C    0.533066
    12  C   -0.022913
    15  C    0.025992
    19  O   -0.121254
    21  O   -0.483164
 Sum of Mulliken charges with hydrogens summed into heavy atoms =  -1.00000
 Electronic spatial extent (au):  <R**2>=           2793.2196
 Charge=             -1.0000 electrons
 Dipole moment (field-independent basis, Debye):
    X=              6.2192    Y=             -2.5972    Z=             -1.2340  Tot=              6.8518
 Quadrupole moment (field-independent basis, Debye-Ang):
   XX=            -73.2456   YY=            -72.3273   ZZ=            -69.9321
   XY=              5.3528   XZ=             -4.7441   YZ=             -2.7299
 Traceless Quadrupole moment (field-independent basis, Debye-Ang):
   XX=             -1.4106   YY=             -0.4923   ZZ=              1.9029
   XY=              5.3528   XZ=             -4.7441   YZ=             -2.7299
 Octapole moment (field-independent basis, Debye-Ang**2):
  XXX=             59.5951  YYY=            -11.3664  ZZZ=             -3.1004  XYY=             17.7492
  XXY=              2.7322  XXZ=             -4.3534  XZZ=              1.2853  YZZ=             -0.1244
  YYZ=             -2.4888  XYZ=              4.5354
 Hexadecapole moment (field-independent basis, Debye-Ang**3):
 XXXX=          -3173.4007 YYYY=           -462.4120 ZZZZ=           -253.9315 XXXY=            -58.7951
 XXXZ=             23.2990 YYYX=             -0.5202 YYYZ=             -7.4039 ZZZX=             -9.6898
 ZZZY=              4.8327 XXYY=           -624.2294 XXZZ=           -570.5244 YYZZ=           -112.9240
 XXYZ=             -8.3909 YYXZ=             18.1721 ZZXY=             -1.1239
 N-N= 5.017223674858D+02 E-N=-2.271951515277D+03  KE= 5.314743961054D+02
 Calling FoFJK, ICntrl=      2127 FMM=F ISym2X=0 I1Cent= 0 IOpClX= 0 NMat=1 NMatS=1 NMatT=0.
 ***** Axes restored to original set *****
 -------------------------------------------------------------------
 Center     Atomic                   Forces (Hartrees/Bohr)
 Number     Number              X              Y              Z
 -------------------------------------------------------------------
      1        6          -0.018814429    0.014034257    0.027762088
      2        1           0.003611090   -0.017280294   -0.004776899
      3        1           0.007522416    0.006788332   -0.017696672
      4        6          -0.087261333   -0.023244779   -0.013887396
      5        8           0.031895907   -0.012346892   -0.000456256
      6        8           0.046879889    0.030766729    0.016074929
      7        6          -0.002195437   -0.009557867   -0.021763190
      8        1           0.021602331   -0.000534523    0.005005530
      9        1          -0.005106367    0.015589466    0.002475209
     10        1          -0.007033501   -0.003665893    0.014727967
     11        6           0.036535218   -0.133826099   -0.012299345
     12        6           0.023613113    0.006608373   -0.011921106
     13        1          -0.005771287    0.014749626    0.009709812
     14        1          -0.002969053   -0.013369203    0.009274106
     15        6           0.008014217   -0.000483692    0.018706271
     16        1           0.004338961   -0.013015243   -0.009270770
     17        1          -0.018148259    0.002602048   -0.002115180
     18        1           0.005722062    0.011699146   -0.011921726
     19        8          -0.017918264    0.041917103    0.011024076
     20        1           0.033406894    0.001696500   -0.019015605
     21        8          -0.057924167    0.080872906    0.010364157
 -------------------------------------------------------------------
 Cartesian Forces:  Max     0.133826099 RMS     0.028837519

 GradGradGradGradGradGradGradGradGradGradGradGradGradGradGradGradGradGrad
 Berny optimization.
 Internal  Forces:  Max     0.099536829 RMS     0.016369004
 Search for a local minimum.
 Step number   1 out of a maximum of   99
 All quantities printed in internal units (Hartrees-Bohrs-Radians)
 Mixed Optimization -- RFO/linear search
 Second derivative matrix not updated -- first step.
     Eigenvalues ---    0.00230   0.00237   0.00237   0.00237   0.00237
     Eigenvalues ---    0.00931   0.00931   0.01558   0.02228   0.02997
     Eigenvalues ---    0.02997   0.04356   0.04356   0.05410   0.05410
     Eigenvalues ---    0.05720   0.05720   0.05720   0.05720   0.08669
     Eigenvalues ---    0.08669   0.12376   0.12376   0.16000   0.16000
     Eigenvalues ---    0.16000   0.16000   0.16000   0.16000   0.16000
     Eigenvalues ---    0.16000   0.21983   0.21983   0.25000   0.25000
     Eigenvalues ---    0.25000   0.25000   0.25000   0.28519   0.28519
     Eigenvalues ---    0.28519   0.28519   0.37230   0.37230   0.37230
     Eigenvalues ---    0.37230   0.37230   0.37230   0.37230   0.37230
     Eigenvalues ---    0.37230   0.37230   0.55473   0.66833   0.66833
     Eigenvalues ---    0.66833   0.668331000.000001000.000001000.00000
     Eigenvalues --- 1000.000001000.000001000.000001000.000001000.00000
     Eigenvalues --- 1000.000001000.000001000.000001000.000001000.00000
     Eigenvalues --- 1000.000001000.000001000.000001000.000001000.00000
     Eigenvalues --- 1000.000001000.000001000.000001000.000001000.00000
     Eigenvalues --- 1000.000001000.000001000.000001000.000001000.00000
     Eigenvalues --- 1000.000001000.000001000.000001000.00000
 RFO step:  Lambda=-4.87166656D-02 EMin= 2.30000000D-03
 Linear search not attempted -- first point.
 Maximum step size (   0.300) exceeded in Quadratic search.
    -- Step size scaled by   0.764
 Iteration  1 RMS(Cart)=  0.06961732 RMS(Int)=  0.00213660
 Iteration  2 RMS(Cart)=  0.00386600 RMS(Int)=  0.00016399
 Iteration  3 RMS(Cart)=  0.00001044 RMS(Int)=  0.00016390
 Iteration  4 RMS(Cart)=  0.00000000 RMS(Int)=  0.00016390
 Variable       Old X    -DE/DX   Delta X   Delta X   Delta X     New X
                                 (Linear)    (Quad)   (Total)
    R1        2.02201   0.01749   0.00000   0.03175   0.03175   2.05375
    R2        2.02201   0.02016   0.00000   0.03658   0.03658   2.05859
    R3        2.91018  -0.00041   0.00000  -0.00095  -0.00095   2.90923
    R4        2.91018   0.00366   0.00000   0.00838   0.00838   2.91856
    R5        2.45910  -0.03347   0.00000  -0.03566  -0.03566   2.42344
    R6        2.45910  -0.05343   0.00000  -0.05694  -0.05694   2.40216
    R7        4.62172  -0.01128   0.00000  -0.12137  -0.12137   4.50034
    R8        2.02201   0.02181   0.00000   0.03959   0.03959   2.06160
    R9        2.02201   0.01605   0.00000   0.02913   0.02913   2.05113
   R10        2.02201   0.01649   0.00000   0.02992   0.02992   2.05193
   R11        2.91018  -0.01480   0.00000  -0.03387  -0.03387   2.87631
   R12        2.45910   0.04110   0.00000   0.04380   0.04380   2.50290
   R13        2.45910  -0.09954   0.00000  -0.10606  -0.10606   2.35304
   R14        2.02201   0.01854   0.00000   0.03365   0.03365   2.05566
   R15        2.02201   0.01628   0.00000   0.02954   0.02954   2.05155
   R16        2.91018   0.00437   0.00000   0.01000   0.01000   2.92018
   R17        2.02201   0.01631   0.00000   0.02961   0.02961   2.05161
   R18        2.02201   0.01834   0.00000   0.03328   0.03328   2.05529
   R19        2.02201   0.01724   0.00000   0.03129   0.03129   2.05329
   R20        1.81414   0.02348   0.00000   0.02972   0.02972   1.84386
    A1        1.91063  -0.00064   0.00000  -0.01477  -0.01497   1.89567
    A2        1.91063  -0.00527   0.00000  -0.01719  -0.01767   1.89297
    A3        1.91063   0.00095   0.00000   0.01310   0.01314   1.92378
    A4        1.91063  -0.00359   0.00000  -0.01227  -0.01244   1.89820
    A5        1.91063  -0.00234   0.00000  -0.00367  -0.00356   1.90707
    A6        1.91063   0.01088   0.00000   0.03480   0.03469   1.94533
    A7        2.09241  -0.02322   0.00000  -0.05940  -0.05947   2.03293
    A8        2.09242  -0.01712   0.00000  -0.04378  -0.04385   2.04858
    A9        2.09836   0.04034   0.00000   0.10317   0.10308   2.20144
   A10        2.09747  -0.00038   0.00000  -0.00138  -0.00138   2.09609
   A11        1.91063   0.00539   0.00000   0.02239   0.02224   1.93288
   A12        1.91063   0.00187   0.00000   0.00585   0.00577   1.91640
   A13        1.91063   0.00191   0.00000   0.00533   0.00527   1.91591
   A14        1.91063  -0.00244   0.00000  -0.00558  -0.00574   1.90490
   A15        1.91063  -0.00295   0.00000  -0.00883  -0.00895   1.90168
   A16        1.91063  -0.00377   0.00000  -0.01915  -0.01914   1.89150
   A17        2.09241  -0.02040   0.00000  -0.05218  -0.05218   2.04023
   A18        2.09241  -0.00161   0.00000  -0.00411  -0.00411   2.08830
   A19        2.09836   0.02201   0.00000   0.05629   0.05629   2.15465
   A20        1.91063   0.00080   0.00000   0.00384   0.00383   1.91447
   A21        1.91063  -0.00254   0.00000  -0.01533  -0.01532   1.89532
   A22        1.91063  -0.00074   0.00000  -0.00210  -0.00210   1.90854
   A23        1.91063  -0.00046   0.00000  -0.00156  -0.00161   1.90902
   A24        1.91063   0.00067   0.00000   0.00595   0.00593   1.91656
   A25        1.91063   0.00226   0.00000   0.00920   0.00916   1.91979
   A26        1.91063   0.00152   0.00000   0.00529   0.00526   1.91590
   A27        1.91063   0.00192   0.00000   0.00770   0.00764   1.91828
   A28        1.91063   0.00447   0.00000   0.01597   0.01592   1.92655
   A29        1.91063  -0.00146   0.00000  -0.00457  -0.00459   1.90604
   A30        1.91063  -0.00346   0.00000  -0.01401  -0.01404   1.89660
   A31        1.91063  -0.00299   0.00000  -0.01039  -0.01047   1.90016
   A32        1.91114   0.01661   0.00000   0.06080   0.06080   1.97193
   A33        2.94805   0.00652   0.00000   0.01668   0.01668   2.96473
    D1        2.62025   0.00457   0.00000   0.03401   0.03350   2.65375
    D2       -0.52134   0.00287   0.00000   0.01151   0.01157  -0.50978
    D3       -1.56854  -0.00163   0.00000  -0.00212  -0.00223  -1.57077
    D4        1.57305  -0.00334   0.00000  -0.02461  -0.02417   1.54888
    D5        0.52586  -0.00003   0.00000   0.00718   0.00696   0.53282
    D6       -2.61574  -0.00174   0.00000  -0.01532  -0.01497  -2.63071
    D7        0.87400  -0.00044   0.00000   0.00015  -0.00002   0.87398
    D8        2.96840   0.00101   0.00000   0.01060   0.01049   2.97889
    D9       -1.22040  -0.00130   0.00000  -0.00601  -0.00620  -1.22660
   D10       -1.22040   0.00119   0.00000   0.01246   0.01250  -1.20790
   D11        0.87400   0.00264   0.00000   0.02292   0.02301   0.89701
   D12        2.96840   0.00034   0.00000   0.00630   0.00632   2.97471
   D13        2.96839   0.00035   0.00000   0.00843   0.00852   2.97692
   D14       -1.22040   0.00180   0.00000   0.01888   0.01903  -1.20136
   D15        0.87400  -0.00050   0.00000   0.00227   0.00234   0.87634
   D16       -2.22610  -0.00098   0.00000  -0.01244  -0.01321  -2.23931
   D17        0.91550   0.00074   0.00000   0.01014   0.01091   0.92640
   D18        1.54606   0.00491   0.00000   0.07355   0.07355   1.61961
   D19       -0.37428  -0.00087   0.00000  -0.00655  -0.00656  -0.38084
   D20       -2.46868   0.00075   0.00000   0.00240   0.00240  -2.46628
   D21        1.72011  -0.00001   0.00000   0.00180   0.00178   1.72189
   D22        2.76731  -0.00103   0.00000  -0.00860  -0.00858   2.75873
   D23        0.67291   0.00059   0.00000   0.00035   0.00037   0.67329
   D24       -1.42148  -0.00016   0.00000  -0.00024  -0.00025  -1.42173
   D25       -2.07485  -0.00453   0.00000  -0.04429  -0.04432  -2.11917
   D26        1.06675  -0.00438   0.00000  -0.04224  -0.04221   1.02454
   D27        1.20667  -0.00181   0.00000  -0.01639  -0.01640   1.19027
   D28       -2.98212  -0.00149   0.00000  -0.01403  -0.01406  -2.99618
   D29       -0.88773  -0.00124   0.00000  -0.01226  -0.01226  -0.89999
   D30       -2.98212  -0.00087   0.00000  -0.00934  -0.00935  -2.99147
   D31       -0.88773  -0.00054   0.00000  -0.00697  -0.00700  -0.89472
   D32        1.20667  -0.00030   0.00000  -0.00521  -0.00521   1.20146
   D33       -0.88773   0.00037   0.00000  -0.00196  -0.00194  -0.88967
   D34        1.20667   0.00069   0.00000   0.00040   0.00041   1.20708
   D35       -2.98212   0.00094   0.00000   0.00217   0.00220  -2.97992
   D36       -2.16063   0.00243   0.00000   0.02883   0.02883  -2.13180
         Item               Value     Threshold  Converged?
 Maximum Force            0.099537     0.000450     NO 
 RMS     Force            0.016369     0.000300     NO 
 Maximum Displacement     0.202944     0.001800     NO 
 RMS     Displacement     0.070083     0.001200     NO 
 Predicted change in Energy=-2.519257D-02
 GradGradGradGradGradGradGradGradGradGradGradGradGradGradGradGradGradGrad

                          Input orientation:                          
 ---------------------------------------------------------------------
 Center     Atomic      Atomic             Coordinates (Angstroms)
 Number     Number       Type             X           Y           Z
 ---------------------------------------------------------------------
      1          6           0        0.321520   -0.290576    0.007136
      2          1           0        0.685741   -1.312924   -0.050169
      3          1           0        0.687814    0.258138   -0.859720
      4          6           0       -1.217065   -0.317995   -0.038209
      5          8           0       -1.823678    0.647959    0.547946
      6          8           0       -1.766254   -1.275063   -0.669309
      7          6           0        0.836806    0.388372    1.295076
      8          1           0        1.914823    0.255599    1.397166
      9          1           0        0.609914    1.449446    1.267431
     10          1           0        0.344517   -0.044482    2.160709
     11          6           0       -4.765541   -1.135074    2.805483
     12          6           0       -6.285673   -1.071822    2.849302
     13          1           0       -6.600374   -0.148700    3.331102
     14          1           0       -6.651055   -1.919287    3.421050
     15          6           0       -6.842183   -1.126837    1.408746
     16          1           0       -6.658695   -2.107827    0.981354
     17          1           0       -7.912698   -0.934958    1.417683
     18          1           0       -6.356474   -0.380070    0.786629
     19          8           0       -4.114954    0.014460    2.903170
     20          1           0       -3.538935    0.192618    2.136027
     21          8           0       -4.198072   -2.236815    2.684635
 ---------------------------------------------------------------------
                    Distance matrix (angstroms):
                    1          2          3          4          5
     1  C    0.000000
     2  H    1.086800   0.000000
     3  H    1.089357   1.767374   0.000000
     4  C    1.539498   2.147254   2.152992   0.000000
     5  O    2.403165   3.240368   2.905353   1.282429   0.000000
     6  O    2.405326   2.529238   2.899898   1.271170   2.276624
     7  C    1.544435   2.174146   2.163863   2.548527   2.775566
     8  H    2.183827   2.462860   2.568869   3.492568   3.853766
     9  H    2.167762   3.061454   2.439273   2.857690   2.661280
    10  H    2.167710   2.571645   3.054901   2.710828   2.789543
    11  C    5.867036   6.156530   6.716683   4.620161   4.114637
    12  C    7.234864   7.554183   8.009691   5.881901   5.306909
    13  H    7.679941   8.116396   8.417018   6.353025   5.585467
    14  H    7.932485   8.139141   8.770700   6.637685   6.176492
    15  C    7.347277   7.670248   7.985296   5.864286   5.392241
    16  H    7.278387   7.458999   7.934642   5.818449   5.582077
    17  H    8.378975   8.731014   8.976573   6.879809   6.351239
    18  H    6.723929   7.152848   7.262215   5.205548   4.654036
    19  O    5.306822   5.790581   6.106169   4.142462   3.346393
    20  H    4.434948   4.989388   5.181139   3.221662   2.381479
    21  O    5.602103   5.673126   6.531395   4.470140   4.304080
                    6          7          8          9         10
     6  O    0.000000
     7  C    3.660839   0.000000
     8  H    4.490386   1.090950   0.000000
     9  H    4.101229   1.085413   1.773383   0.000000
    10  H    3.738807   1.085833   1.771696   1.760739   0.000000
    11  C    4.592331   5.999043   6.967395   6.159616   5.264771
    12  C    5.731237   7.434884   8.433201   7.510541   6.744554
    13  H    6.375006   7.729521   8.741404   7.668185   7.043592
    14  H    6.403698   8.118690   9.066450   8.289036   7.351285
    15  C    5.486833   7.827877   8.865462   7.886124   7.306544
    16  H    5.230121   7.906452   8.903027   8.097451   7.395489
    17  H    6.499999   8.849863   9.899395   8.851151   8.338264
    18  H    4.898050   7.252055   8.318124   7.218647   6.848649
    19  O    4.465632   5.219742   6.219679   5.201846   4.521239
    20  H    3.628553   4.460115   5.503940   4.421201   3.890761
    21  O    4.252957   5.845723   6.725859   6.222034   5.071088
                   11         12         13         14         15
    11  C    0.000000
    12  C    1.522078   0.000000
    13  H    2.148445   1.087806   0.000000
    14  H    2.132857   1.085633   1.773595   0.000000
    15  C    2.502675   1.545293   2.170409   2.171145   0.000000
    16  H    2.803164   2.168336   3.059885   2.446982   1.085667
    17  H    3.445379   2.171514   2.449810   2.564006   1.087613
    18  H    2.678968   2.176729   2.566585   3.065312   1.086556
    19  O    1.324476   2.427948   2.527263   3.231005   3.312649
    20  H    1.927564   3.106790   3.304105   3.974509   3.630613
    21  O    1.245175   2.396331   3.247953   2.580748   3.138673
                   16         17         18         19         20
    16  H    0.000000
    17  H    1.771590   0.000000
    18  H    1.764766   1.768605   0.000000
    19  O    3.829896   4.186996   3.108024   0.000000
    20  H    4.044531   4.573539   3.176063   0.975729   0.000000
    21  O    2.995409   4.135027   3.421787   2.263384   2.576350
                   21
    21  O    0.000000
 Stoichiometry    C6H11O4(1-)
 Framework group  C1[X(C6H11O4)]
 Deg. of freedom    57
 Full point group                 C1      NOp   1
 Largest Abelian subgroup         C1      NOp   1
 Largest concise Abelian subgroup C1      NOp   1
                         Standard orientation:                         
 ---------------------------------------------------------------------
 Center     Atomic      Atomic             Coordinates (Angstroms)
 Number     Number       Type             X           Y           Z
 ---------------------------------------------------------------------
      1          6           0       -3.586517    0.283646    0.233737
      2          1           0       -3.762932    0.552409    1.271898
      3          1           0       -4.307814    0.811060   -0.389371
      4          6           0       -2.168832    0.741607   -0.154198
      5          8           0       -1.583923    0.070882   -1.077578
      6          8           0       -1.697536    1.757281    0.447600
      7          6           0       -3.761649   -1.238433    0.039098
      8          1           0       -4.705056   -1.577069    0.469772
      9          1           0       -3.747390   -1.477810   -1.019494
     10          1           0       -2.944278   -1.766778    0.520542
     11          6           0        2.201705   -0.666974    0.355889
     12          6           0        3.615540   -0.323186   -0.090878
     13          1           0        3.902867   -0.962819   -0.922524
     14          1           0        4.291820   -0.489570    0.741924
     15          6           0        3.668740    1.158352   -0.526932
     16          1           0        3.531244    1.800760    0.337405
     17          1           0        4.631207    1.375394   -0.984591
     18          1           0        2.882034    1.369698   -1.245981
     19          8           0        1.427242   -1.280773   -0.525981
     20          1           0        0.609445   -0.786713   -0.723866
     21          8           0        1.829833   -0.369720    1.506459
 ---------------------------------------------------------------------
 Rotational constants (GHZ):      2.2983514      0.4351618      0.4112418
 Standard basis: 6-31G(d) (6D, 7F)
 There are   172 symmetry adapted basis functions of A   symmetry.
 Integral buffers will be    131072 words long.
 Raffenetti 2 integral format.
 Two-electron integral symmetry is turned on.
   172 basis functions,   324 primitive gaussians,   172 cartesian basis functions
    40 alpha electrons       40 beta electrons
       nuclear repulsion energy       502.4985675341 Hartrees.
 NAtoms=   21 NActive=   21 NUniq=   21 SFac= 7.50D-01 NAtFMM=   80 NAOKFM=F Big=F
 One-electron integrals computed using PRISM.
 NBasis=   172 RedAO= T  NBF=   172
 NBsUse=   172 1.00D-06 NBFU=   172
 Initial guess read from the read-write file.
 B after Tr=     0.000000    0.000000    0.000000
         Rot=    1.000000    0.000000    0.000000    0.000000 Ang=   0.00 deg.
 Initial guess orbital symmetries:
       Occupied  (A) (A) (A) (A) (A) (A) (A) (A) (A) (A) (A) (A)
                 (A) (A) (A) (A) (A) (A) (A) (A) (A) (A) (A) (A)
                 (A) (A) (A) (A) (A) (A) (A) (A) (A) (A) (A) (A)
                 (A) (A) (A) (A)
       Virtual   (A) (A) (A) (A) (A) (A) (A) (A) (A) (A) (A) (A)
                 (A) (A) (A) (A) (A) (A) (A) (A) (A) (A) (A) (A)
                 (A) (A) (A) (A) (A) (A) (A) (A) (A) (A) (A) (A)
                 (A) (A) (A) (A) (A) (A) (A) (A) (A) (A) (A) (A)
                 (A) (A) (A) (A) (A) (A) (A) (A) (A) (A) (A) (A)
                 (A) (A) (A) (A) (A) (A) (A) (A) (A) (A) (A) (A)
                 (A) (A) (A) (A) (A) (A) (A) (A) (A) (A) (A) (A)
                 (A) (A) (A) (A) (A) (A) (A) (A) (A) (A) (A) (A)
                 (A) (A) (A) (A) (A) (A) (A) (A) (A) (A) (A) (A)
                 (A) (A) (A) (A) (A) (A) (A) (A) (A) (A) (A) (A)
                 (A) (A) (A) (A) (A) (A) (A) (A) (A) (A) (A) (A)
 Harris functional with IExCor=  402 diagonalized for initial guess.
 ExpMin= 1.61D-01 ExpMax= 5.48D+03 ExpMxC= 8.25D+02 IAcc=1 IRadAn=         1 AccDes= 0.00D+00
 HarFok:  IExCor=  402 AccDes= 0.00D+00 IRadAn=         1 IDoV= 1
 ScaDFX=  1.000000  1.000000  1.000000  1.000000
 FoFCou: FMM=F IPFlag=           0 FMFlag=      100000 FMFlg1=           0
         NFxFlg=           0 DoJE=T BraDBF=F KetDBF=T FulRan=T
         Omega=  0.000000  0.000000  1.000000  0.000000  0.000000 ICntrl=     500 IOpCl=  0
         NMat0=    1 NMatS0=    1 NMatT0=    0 NMatD0=    1 NMtDS0=    0 NMtDT0=    0
         I1Cent=           4 NGrid=           0.
 Petite list used in FoFCou.
 Requested convergence on RMS density matrix=1.00D-08 within 128 cycles.
 Requested convergence on MAX density matrix=1.00D-06.
 Requested convergence on             energy=1.00D-06.
 No special actions if energy rises.
 Integral accuracy reduced to 1.0D-05 until final iterations.
 Initial convergence to 1.0D-05 achieved.  Increase integral accuracy.
 SCF Done:  E(RB3LYP) =  -536.212480140     A.U. after   14 cycles
             Convg  =    0.5674D-08             -V/T =  2.0089
 Calling FoFJK, ICntrl=      2127 FMM=F ISym2X=0 I1Cent= 0 IOpClX= 0 NMat=1 NMatS=1 NMatT=0.
 ***** Axes restored to original set *****
 -------------------------------------------------------------------
 Center     Atomic                   Forces (Hartrees/Bohr)
 Number     Number              X              Y              Z
 -------------------------------------------------------------------
      1        6          -0.001793016    0.007021909    0.016775030
      2        1           0.002240329   -0.005568049   -0.003411405
      3        1           0.003692635    0.001326926   -0.006687576
      4        6          -0.038405505   -0.011808894   -0.010742161
      5        8           0.005208648   -0.007088419    0.004265028
      6        8           0.016844745    0.016947099    0.010872544
      7        6           0.000680674   -0.005318703   -0.013335075
      8        1           0.006911358    0.000549502    0.002268702
      9        1          -0.002479153    0.004883634    0.002146326
     10        1          -0.001977899   -0.001032975    0.005683398
     11        6           0.017469990   -0.068553419   -0.003963150
     12        6           0.005822234    0.007853182   -0.003959659
     13        1          -0.002186074    0.004344932    0.002865162
     14        1          -0.001839351   -0.004133951    0.003248995
     15        6           0.002911650    0.000105667    0.009765173
     16        1           0.001473293   -0.004114573   -0.003484780
     17        1          -0.005790163    0.000477239   -0.001408760
     18        1           0.001416612    0.003630709   -0.004152638
     19        8          -0.012344144    0.027694759   -0.000354593
     20        1           0.022379769   -0.005399433   -0.008383872
     21        8          -0.020236633    0.038182858    0.001993313
 -------------------------------------------------------------------
 Cartesian Forces:  Max     0.068553419 RMS     0.013845546

 GradGradGradGradGradGradGradGradGradGradGradGradGradGradGradGradGradGrad
 Berny optimization.
 Using GEDIIS/GDIIS optimizer.
 Internal  Forces:  Max     0.043201590 RMS     0.007024162
 Search for a local minimum.
 Step number   2 out of a maximum of   99
 All quantities printed in internal units (Hartrees-Bohrs-Radians)
 Mixed Optimization -- RFO/linear search
 Update second derivatives using D2CorX and points    1    2
 DE= -2.67D-02 DEPred=-2.52D-02 R= 1.06D+00
 SS=  1.41D+00  RLast= 3.00D-01 DXNew= 5.0454D-01 8.9996D-01
 Trust test= 1.06D+00 RLast= 3.00D-01 DXMaxT set to 5.05D-01
 Use linear search instead of GDIIS.
     Eigenvalues ---    0.00231   0.00237   0.00237   0.00237   0.00237
     Eigenvalues ---    0.00970   0.01033   0.01557   0.02142   0.02947
     Eigenvalues ---    0.02998   0.04109   0.04360   0.05285   0.05375
     Eigenvalues ---    0.05530   0.05595   0.05640   0.05675   0.08711
     Eigenvalues ---    0.09054   0.12368   0.12626   0.15905   0.16000
     Eigenvalues ---    0.16000   0.16000   0.16000   0.16000   0.16000
     Eigenvalues ---    0.16288   0.21633   0.21974   0.23562   0.24999
     Eigenvalues ---    0.25000   0.25000   0.26596   0.28391   0.28519
     Eigenvalues ---    0.28519   0.29916   0.37194   0.37230   0.37230
     Eigenvalues ---    0.37230   0.37230   0.37230   0.37230   0.37230
     Eigenvalues ---    0.37230   0.38800   0.55370   0.57523   0.66833
     Eigenvalues ---    0.66833   0.669651000.000001000.000001000.00000
     Eigenvalues --- 1000.000001000.000001000.000001000.000001000.00000
     Eigenvalues --- 1000.000001000.000001000.000001000.000001000.00000
     Eigenvalues --- 1000.000001000.000001000.000001000.000001000.00000
     Eigenvalues --- 1000.000001000.000001000.000001000.000001000.00000
     Eigenvalues --- 1000.000001000.000001000.000001000.000001000.00000
     Eigenvalues --- 1000.000001000.000001000.000001000.00000
 RFO step:  Lambda=-8.74192985D-03 EMin= 2.31262844D-03
 Quartic linear search produced a step of  0.67032.
 Iteration  1 RMS(Cart)=  0.11672765 RMS(Int)=  0.02492318
 Iteration  2 RMS(Cart)=  0.05914980 RMS(Int)=  0.00306443
 Iteration  3 RMS(Cart)=  0.00659415 RMS(Int)=  0.00025931
 Iteration  4 RMS(Cart)=  0.00000286 RMS(Int)=  0.00025931
 Iteration  5 RMS(Cart)=  0.00000000 RMS(Int)=  0.00025931
 Variable       Old X    -DE/DX   Delta X   Delta X   Delta X     New X
                                 (Linear)    (Quad)   (Total)
    R1        2.05375   0.00617   0.02128  -0.00020   0.02108   2.07483
    R2        2.05859   0.00723   0.02452   0.00030   0.02482   2.08340
    R3        2.90923   0.00740  -0.00064   0.04213   0.04150   2.95073
    R4        2.91856  -0.00205   0.00562  -0.01884  -0.01322   2.90534
    R5        2.42344  -0.01367  -0.02390  -0.00512  -0.02902   2.39442
    R6        2.40216  -0.02543  -0.03817  -0.01691  -0.05508   2.34708
    R7        4.50034  -0.01178  -0.08136  -0.33933  -0.42068   4.07966
    R8        2.06160   0.00697   0.02654  -0.00334   0.02319   2.08479
    R9        2.05113   0.00524   0.01952  -0.00199   0.01753   2.06867
   R10        2.05193   0.00584   0.02006  -0.00008   0.01997   2.07190
   R11        2.87631  -0.00139  -0.02270   0.02213  -0.00057   2.87574
   R12        2.50290   0.01968   0.02936   0.01330   0.04266   2.54556
   R13        2.35304  -0.04320  -0.07109  -0.02139  -0.09249   2.26055
   R14        2.05566   0.00559   0.02256  -0.00430   0.01826   2.07391
   R15        2.05155   0.00556   0.01980  -0.00098   0.01883   2.07037
   R16        2.92018  -0.00068   0.00670  -0.01259  -0.00588   2.91430
   R17        2.05161   0.00534   0.01985  -0.00196   0.01789   2.06950
   R18        2.05529   0.00577   0.02231  -0.00321   0.01910   2.07439
   R19        2.05329   0.00550   0.02097  -0.00267   0.01830   2.07160
   R20        1.84386   0.00728   0.01992  -0.00258   0.01734   1.86120
    A1        1.89567  -0.00094  -0.01003  -0.02375  -0.03403   1.86163
    A2        1.89297  -0.00220  -0.01184   0.01012  -0.00287   1.89010
    A3        1.92378  -0.00014   0.00881  -0.00032   0.00799   1.93177
    A4        1.89820  -0.00223  -0.00834  -0.00622  -0.01473   1.88346
    A5        1.90707  -0.00133  -0.00239  -0.00576  -0.00796   1.89912
    A6        1.94533   0.00665   0.02326   0.02467   0.04742   1.99274
    A7        2.03293  -0.00614  -0.03987   0.01482  -0.02522   2.00771
    A8        2.04858  -0.00474  -0.02939   0.00953  -0.02000   2.02858
    A9        2.20144   0.01086   0.06910  -0.02459   0.04429   2.24573
   A10        2.09609  -0.00043  -0.00093  -0.00281  -0.00373   2.09236
   A11        1.93288   0.00273   0.01491   0.00785   0.02248   1.95535
   A12        1.91640   0.00107   0.00387   0.00337   0.00710   1.92350
   A13        1.91591   0.00150   0.00353   0.00692   0.01034   1.92624
   A14        1.90490  -0.00132  -0.00385  -0.00215  -0.00628   1.89861
   A15        1.90168  -0.00182  -0.00600  -0.00611  -0.01236   1.88933
   A16        1.89150  -0.00231  -0.01283  -0.01040  -0.02319   1.86830
   A17        2.04023  -0.01344  -0.03498  -0.03795  -0.07296   1.96728
   A18        2.08830   0.00606  -0.00276   0.04212   0.03933   2.12764
   A19        2.15465   0.00738   0.03773  -0.00418   0.03352   2.18817
   A20        1.91447   0.00103   0.00257   0.01406   0.01663   1.93109
   A21        1.89532  -0.00070  -0.01027   0.00564  -0.00461   1.89070
   A22        1.90854  -0.00029  -0.00141   0.00159   0.00016   1.90870
   A23        1.90902  -0.00037  -0.00108  -0.00638  -0.00750   1.90152
   A24        1.91656  -0.00012   0.00397  -0.00564  -0.00174   1.91483
   A25        1.91979   0.00045   0.00614  -0.00906  -0.00296   1.91683
   A26        1.91590   0.00096   0.00353   0.00378   0.00724   1.92313
   A27        1.91828   0.00176   0.00512   0.01087   0.01588   1.93415
   A28        1.92655   0.00135   0.01067  -0.00417   0.00643   1.93298
   A29        1.90604  -0.00112  -0.00308  -0.00376  -0.00695   1.89909
   A30        1.89660  -0.00152  -0.00941  -0.00346  -0.01290   1.88370
   A31        1.90016  -0.00151  -0.00702  -0.00351  -0.01064   1.88952
   A32        1.97193   0.00349   0.04075  -0.02743   0.01333   1.98526
   A33        2.96473   0.00568   0.01118   0.02090   0.03208   2.99680
    D1        2.65375   0.00257   0.02245   0.02037   0.04226   2.69601
    D2       -0.50978   0.00166   0.00775   0.00904   0.01701  -0.49277
    D3       -1.57077  -0.00104  -0.00150  -0.00578  -0.00743  -1.57821
    D4        1.54888  -0.00195  -0.01620  -0.01711  -0.03268   1.51620
    D5        0.53282   0.00000   0.00467  -0.00158   0.00263   0.53545
    D6       -2.63071  -0.00091  -0.01004  -0.01291  -0.02262  -2.65333
    D7        0.87398  -0.00082  -0.00001   0.00733   0.00702   0.88101
    D8        2.97889  -0.00001   0.00703   0.01189   0.01872   2.99760
    D9       -1.22660  -0.00126  -0.00416   0.00544   0.00092  -1.22568
   D10       -1.20790   0.00124   0.00838   0.04021   0.04864  -1.15925
   D11        0.89701   0.00205   0.01542   0.04477   0.06034   0.95735
   D12        2.97471   0.00080   0.00423   0.03831   0.04254   3.01725
   D13        2.97692   0.00070   0.00571   0.03613   0.04206   3.01898
   D14       -1.20136   0.00151   0.01276   0.04069   0.05375  -1.14761
   D15        0.87634   0.00025   0.00157   0.03423   0.03595   0.91230
   D16       -2.23931  -0.00143  -0.00885  -0.03774  -0.04761  -2.28692
   D17        0.92640  -0.00018   0.00731  -0.02583  -0.01751   0.90890
   D18        1.61961   0.00390   0.04930   0.19168   0.24098   1.86059
   D19       -0.38084  -0.00031  -0.00439  -0.01753  -0.02196  -0.40280
   D20       -2.46628  -0.00005   0.00161  -0.02145  -0.01982  -2.48610
   D21        1.72189   0.00000   0.00119  -0.01477  -0.01358   1.70831
   D22        2.75873  -0.00051  -0.00575  -0.02870  -0.03447   2.72425
   D23        0.67329  -0.00025   0.00025  -0.03262  -0.03234   0.64095
   D24       -1.42173  -0.00021  -0.00017  -0.02595  -0.02609  -1.44782
   D25       -2.11917  -0.00545  -0.02971  -0.14490  -0.17462  -2.29379
   D26        1.02454  -0.00523  -0.02829  -0.13332  -0.16159   0.86294
   D27        1.19027  -0.00127  -0.01100  -0.03334  -0.04436   1.14590
   D28       -2.99618  -0.00095  -0.00942  -0.02880  -0.03822  -3.03439
   D29       -0.89999  -0.00084  -0.00822  -0.02884  -0.03704  -0.93703
   D30       -2.99147  -0.00026  -0.00627  -0.01854  -0.02485  -3.01632
   D31       -0.89472   0.00006  -0.00469  -0.01400  -0.01870  -0.91343
   D32        1.20146   0.00017  -0.00349  -0.01404  -0.01752   1.18394
   D33       -0.88967  -0.00050  -0.00130  -0.03573  -0.03704  -0.92670
   D34        1.20708  -0.00019   0.00027  -0.03119  -0.03089   1.17618
   D35       -2.97992  -0.00008   0.00148  -0.03123  -0.02971  -3.00963
   D36       -2.13180   0.00212   0.01933   0.06288   0.08221  -2.04959
         Item               Value     Threshold  Converged?
 Maximum Force            0.043202     0.000450     NO 
 RMS     Force            0.007024     0.000300     NO 
 Maximum Displacement     0.377284     0.001800     NO 
 RMS     Displacement     0.154394     0.001200     NO 
 Predicted change in Energy=-1.234534D-02
 GradGradGradGradGradGradGradGradGradGradGradGradGradGradGradGradGradGrad

                          Input orientation:                          
 ---------------------------------------------------------------------
 Center     Atomic      Atomic             Coordinates (Angstroms)
 Number     Number       Type             X           Y           Z
 ---------------------------------------------------------------------
      1          6           0        0.218995   -0.292772    0.054676
      2          1           0        0.532154   -1.333387   -0.102022
      3          1           0        0.614071    0.287679   -0.795309
      4          6           0       -1.340155   -0.235409   -0.007866
      5          8           0       -1.867251    0.725602    0.627819
      6          8           0       -1.893455   -1.097720   -0.709934
      7          6           0        0.817841    0.264335    1.356494
      8          1           0        1.906227    0.094553    1.417267
      9          1           0        0.623986    1.339052    1.432343
     10          1           0        0.347354   -0.209283    2.226221
     11          6           0       -4.675549   -1.043985    2.719577
     12          6           0       -6.193470   -1.049201    2.827682
     13          1           0       -6.552900   -0.112545    3.272562
     14          1           0       -6.490226   -1.885265    3.470536
     15          6           0       -6.805423   -1.226429    1.423253
     16          1           0       -6.555298   -2.215052    1.024032
     17          1           0       -7.897877   -1.124800    1.458030
     18          1           0       -6.412257   -0.473366    0.730389
     19          8           0       -4.159450    0.200172    2.703520
     20          1           0       -3.506221    0.349308    1.981653
     21          8           0       -4.041610   -2.057325    2.672316
 ---------------------------------------------------------------------
                    Distance matrix (angstroms):
                    1          2          3          4          5
     1  C    0.000000
     2  H    1.097954   0.000000
     3  H    1.102490   1.764997   0.000000
     4  C    1.561457   2.172547   2.170873   0.000000
     5  O    2.391233   3.244880   2.893792   1.267071   0.000000
     6  O    2.386423   2.511708   2.866061   1.242023   2.261587
     7  C    1.537438   2.182110   2.161557   2.601571   2.820187
     8  H    2.203049   2.497063   2.569525   3.560741   3.906480
     9  H    2.173668   3.082960   2.463315   2.900169   2.688837
    10  H    2.176937   2.592002   3.073720   2.799913   2.886759
    11  C    5.623395   5.930037   6.489055   4.383787   3.923446
    12  C    7.027193   7.341522   7.826617   5.679547   5.167736
    13  H    7.499722   7.942057   8.250651   6.160277   5.445408
    14  H    7.695308   7.898199   8.566806   6.429972   6.022422
    15  C    7.217144   7.495195   7.890719   5.735798   5.369236
    16  H    7.108153   7.230304   7.808554   5.672875   5.548172
    17  H    8.279208   8.575704   8.917729   6.778170   6.362522
    18  H    6.668036   7.046800   7.230231   5.131069   4.701609
    19  O    5.141025   5.677501   5.919119   3.935704   3.136684
    20  H    4.242963   4.845785   4.969117   2.998653   2.158862
    21  O    5.302682   5.398180   6.260897   4.219077   4.080746
                    6          7          8          9         10
     6  O    0.000000
     7  C    3.671028   0.000000
     8  H    4.514873   1.103224   0.000000
     9  H    4.106668   1.094692   1.786938   0.000000
    10  H    3.798888   1.096402   1.782361   1.761849   0.000000
    11  C    4.416387   5.809220   6.805296   5.951547   5.115631
    12  C    5.568412   7.283423   8.300755   7.357203   6.621902
    13  H    6.208162   7.625037   8.662669   7.549916   6.979806
    14  H    6.263135   7.905555   8.867695   8.072327   7.149107
    15  C    5.356723   7.767947   8.811236   7.859892   7.269220
    16  H    5.097827   7.785953   8.779881   8.021253   7.288001
    17  H    6.383877   8.826310   9.879724   8.870929   8.331394
    18  H    4.783714   7.294555   8.366093   7.299748   6.928174
    19  O    4.297781   5.156745   6.201455   5.078799   4.550467
    20  H    3.455364   4.369846   5.447754   4.282517   3.901522
    21  O    4.120075   5.543984   6.448448   5.902601   4.783018
                   11         12         13         14         15
    11  C    0.000000
    12  C    1.521774   0.000000
    13  H    2.167445   1.097467   0.000000
    14  H    2.136526   1.095595   1.784842   0.000000
    15  C    2.500021   1.542180   2.173580   2.173656   0.000000
    16  H    2.789216   2.177908   3.078381   2.469490   1.095132
    17  H    3.461420   2.187845   2.475106   2.570986   1.097722
    18  H    2.701597   2.185885   2.571501   3.083496   1.096241
    19  O    1.347050   2.390311   2.479961   3.220230   3.267331
    20  H    1.962938   3.145298   3.340959   4.014271   3.698580
    21  O    1.196232   2.381376   3.232498   2.581178   3.144711
                   16         17         18         19         20
    16  H    0.000000
    17  H    1.783122   0.000000
    18  H    1.772049   1.777890   0.000000
    19  O    3.793952   4.157239   3.069534   0.000000
    20  H    4.097542   4.661954   3.269174   0.984907   0.000000
    21  O    3.010041   4.149083   3.449634   2.260786   2.560378
                   21
    21  O    0.000000
 Stoichiometry    C6H11O4(1-)
 Framework group  C1[X(C6H11O4)]
 Deg. of freedom    57
 Full point group                 C1      NOp   1
 Largest Abelian subgroup         C1      NOp   1
 Largest concise Abelian subgroup C1      NOp   1
                         Standard orientation:                         
 ---------------------------------------------------------------------
 Center     Atomic      Atomic             Coordinates (Angstroms)
 Number     Number       Type             X           Y           Z
 ---------------------------------------------------------------------
      1          6           0       -3.466543    0.299303    0.267438
      2          1           0       -3.626472    0.638309    1.299427
      3          1           0       -4.205416    0.827990   -0.357093
      4          6           0       -2.042745    0.755266   -0.183168
      5          8           0       -1.517757    0.050199   -1.095713
      6          8           0       -1.598716    1.781966    0.356597
      7          6           0       -3.709802   -1.214157    0.149197
      8          1           0       -4.675634   -1.513802    0.590199
      9          1           0       -3.692661   -1.518922   -0.902076
     10          1           0       -2.913019   -1.769568    0.657875
     11          6           0        2.071886   -0.673486    0.312893
     12          6           0        3.522218   -0.369967   -0.033822
     13          1           0        3.834708   -0.936153   -0.920511
     14          1           0        4.148446   -0.664753    0.815453
     15          6           0        3.678881    1.141030   -0.299642
     16          1           0        3.491830    1.707692    0.618628
     17          1           0        4.690666    1.371323   -0.657762
     18          1           0        2.961419    1.478689   -1.056596
     19          8           0        1.368437   -1.126312   -0.742877
     20          1           0        0.504757   -0.670073   -0.869147
     21          8           0        1.642787   -0.528187    1.420021
 ---------------------------------------------------------------------
 Rotational constants (GHZ):      2.3533113      0.4600607      0.4334671
 Standard basis: 6-31G(d) (6D, 7F)
 There are   172 symmetry adapted basis functions of A   symmetry.
 Integral buffers will be    131072 words long.
 Raffenetti 2 integral format.
 Two-electron integral symmetry is turned on.
   172 basis functions,   324 primitive gaussians,   172 cartesian basis functions
    40 alpha electrons       40 beta electrons
       nuclear repulsion energy       509.1002461376 Hartrees.
 NAtoms=   21 NActive=   21 NUniq=   21 SFac= 7.50D-01 NAtFMM=   80 NAOKFM=F Big=F
 One-electron integrals computed using PRISM.
 NBasis=   172 RedAO= T  NBF=   172
 NBsUse=   172 1.00D-06 NBFU=   172
 Initial guess read from the read-write file.
 B after Tr=     0.000000    0.000000    0.000000
         Rot=    1.000000    0.000000    0.000000    0.000000 Ang=   0.00 deg.
 Initial guess orbital symmetries:
       Occupied  (A) (A) (A) (A) (A) (A) (A) (A) (A) (A) (A) (A)
                 (A) (A) (A) (A) (A) (A) (A) (A) (A) (A) (A) (A)
                 (A) (A) (A) (A) (A) (A) (A) (A) (A) (A) (A) (A)
                 (A) (A) (A) (A)
       Virtual   (A) (A) (A) (A) (A) (A) (A) (A) (A) (A) (A) (A)
                 (A) (A) (A) (A) (A) (A) (A) (A) (A) (A) (A) (A)
                 (A) (A) (A) (A) (A) (A) (A) (A) (A) (A) (A) (A)
                 (A) (A) (A) (A) (A) (A) (A) (A) (A) (A) (A) (A)
                 (A) (A) (A) (A) (A) (A) (A) (A) (A) (A) (A) (A)
                 (A) (A) (A) (A) (A) (A) (A) (A) (A) (A) (A) (A)
                 (A) (A) (A) (A) (A) (A) (A) (A) (A) (A) (A) (A)
                 (A) (A) (A) (A) (A) (A) (A) (A) (A) (A) (A) (A)
                 (A) (A) (A) (A) (A) (A) (A) (A) (A) (A) (A) (A)
                 (A) (A) (A) (A) (A) (A) (A) (A) (A) (A) (A) (A)
                 (A) (A) (A) (A) (A) (A) (A) (A) (A) (A) (A) (A)
 Harris functional with IExCor=  402 diagonalized for initial guess.
 ExpMin= 1.61D-01 ExpMax= 5.48D+03 ExpMxC= 8.25D+02 IAcc=1 IRadAn=         1 AccDes= 0.00D+00
 HarFok:  IExCor=  402 AccDes= 0.00D+00 IRadAn=         1 IDoV= 1
 ScaDFX=  1.000000  1.000000  1.000000  1.000000
 FoFCou: FMM=F IPFlag=           0 FMFlag=      100000 FMFlg1=           0
         NFxFlg=           0 DoJE=T BraDBF=F KetDBF=T FulRan=T
         Omega=  0.000000  0.000000  1.000000  0.000000  0.000000 ICntrl=     500 IOpCl=  0
         NMat0=    1 NMatS0=    1 NMatT0=    0 NMatD0=    1 NMtDS0=    0 NMtDT0=    0
         I1Cent=           4 NGrid=           0.
 Petite list used in FoFCou.
 Requested convergence on RMS density matrix=1.00D-08 within 128 cycles.
 Requested convergence on MAX density matrix=1.00D-06.
 Requested convergence on             energy=1.00D-06.
 No special actions if energy rises.
 Integral accuracy reduced to 1.0D-05 until final iterations.
 Initial convergence to 1.0D-05 achieved.  Increase integral accuracy.
 SCF Done:  E(RB3LYP) =  -536.226137998     A.U. after   14 cycles
             Convg  =    0.6468D-08             -V/T =  2.0088
[...]
     21          8           0       -3.956447   -1.286330    3.562008
 ---------------------------------------------------------------------
                    Distance matrix (angstroms):
                    1          2          3          4          5
     1  C    0.000000
     2  H    1.096386   0.000000
     3  H    1.101404   1.759739   0.000000
     4  C    1.549359   2.152966   2.148869   0.000000
     5  O    2.380333   3.249080   2.841377   1.291208   0.000000
     6  O    2.400432   2.509606   2.902188   1.236044   2.269884
     7  C    1.530748   2.185090   2.160798   2.590460   2.813706
     8  H    2.192309   2.560870   2.500208   3.545736   3.862739
     9  H    2.162625   3.082690   2.523746   2.804417   2.531783
    10  H    2.179313   2.536518   3.080125   2.883770   3.068297
    11  C    5.562761   6.239199   6.074299   4.181018   3.266314
    12  C    6.992179   7.637790   7.432151   5.544684   4.697337
    13  H    7.378799   8.128890   7.693501   5.991053   5.021409
    14  H    7.672371   8.285217   8.210323   6.265374   5.407259
    15  C    7.338360   7.847366   7.728619   5.802661   5.231938
    16  H    7.250522   7.624728   7.750702   5.712501   5.319820
    17  H    8.416642   8.929435   8.770687   6.881597   6.293460
    18  H    6.858305   7.376346   7.122752   5.331058   4.845368
    19  O    4.708391   5.401805   5.079773   3.260104   2.446671
    20  H    3.594813   4.338721   4.017868   2.209369   1.306436
    21  O    5.570959   6.238836   6.222949   4.370377   3.407306
                    6          7          8          9         10
     6  O    0.000000
     7  C    3.655678   0.000000
     8  H    4.528643   1.099835   0.000000
     9  H    4.015176   1.093239   1.785869   0.000000
    10  H    3.819886   1.096966   1.775401   1.761593   0.000000
    11  C    4.385492   5.821079   6.908367   5.386581   5.676944
    12  C    5.565001   7.340420   8.425856   6.885893   7.213749
    13  H    6.133457   7.681055   8.734064   7.097376   7.668425
    14  H    6.305891   7.885077   8.970871   7.438354   7.627273
    15  C    5.503076   7.964085   9.049136   7.653345   7.882439
    16  H    5.259571   7.917232   9.004744   7.743405   7.728246
    17  H    6.558562   9.043216  10.126366   8.698800   8.968194
    18  H    4.980407   7.629430   8.683947   7.332029   7.684416
    19  O    3.412849   5.225443   6.294814   4.843244   5.282151
    20  H    2.640008   4.085504   5.153226   3.748612   4.189052
    21  O    4.753108   5.532295   6.597983   5.087535   5.208385
                   11         12         13         14         15
    11  C    0.000000
    12  C    1.541105   0.000000
    13  H    2.144460   1.100572   0.000000
    14  H    2.143906   1.095513   1.765441   0.000000
    15  C    2.577245   1.532284   2.159838   2.185272   0.000000
    16  H    2.863311   2.180683   3.079573   2.539090   1.096832
    17  H    3.531086   2.189276   2.501808   2.552799   1.098921
    18  H    2.803295   2.166053   2.515500   3.084310   1.093132
    19  O    1.304912   2.367806   2.751960   3.259712   2.841131
    20  H    2.075877   3.426043   3.797362   4.201317   3.936815
    21  O    1.228528   2.406521   2.980150   2.502556   3.606404
                   16         17         18         19         20
    16  H    0.000000
    17  H    1.774355   0.000000
    18  H    1.764481   1.783704   0.000000
    19  O    3.150583   3.871810   2.548007   0.000000
    20  H    4.093458   4.992649   3.598297   1.145512   0.000000
    21  O    3.710980   4.492551   3.987182   2.271480   2.547820
                   21
    21  O    0.000000
 Stoichiometry    C6H11O4(1-)
 Framework group  C1[X(C6H11O4)]
 Deg. of freedom    57
 Full point group                 C1      NOp   1
 Largest Abelian subgroup         C1      NOp   1
 Largest concise Abelian subgroup C1      NOp   1
                         Standard orientation:                         
 ---------------------------------------------------------------------
 Center     Atomic      Atomic             Coordinates (Angstroms)
 Number     Number       Type             X           Y           Z
 ---------------------------------------------------------------------
      1          6           0       -3.481437    0.364520   -0.080861
      2          1           0       -4.004723    0.951463    0.683163
      3          1           0       -3.820715    0.749866   -1.055279
      4          6           0       -1.969567    0.683236    0.033964
      5          8           0       -1.210685   -0.220513   -0.490013
      6          8           0       -1.627477    1.746686    0.562976
      7          6           0       -3.826001   -1.123414    0.021680
      8          1           0       -4.900050   -1.306247   -0.128741
      9          1           0       -3.260194   -1.688424   -0.723839
     10          1           0       -3.551661   -1.523347    1.005614
     11          6           0        1.979015   -0.691395    0.032385
     12          6           0        3.472589   -0.361128   -0.155132
     13          1           0        3.744629   -0.642622   -1.183731
     14          1           0        4.042735   -1.012085    0.516685
     15          6           0        3.816901    1.114981    0.069468
     16          1           0        3.594299    1.418111    1.099808
     17          1           0        4.881374    1.314226   -0.117147
     18          1           0        3.217010    1.744833   -0.592616
     19          8           0        1.201291    0.187174   -0.538631
     20          1           0        0.076691   -0.004889   -0.435741
     21          8           0        1.640821   -1.703557    0.641018
 ---------------------------------------------------------------------
 Rotational constants (GHZ):      2.7393526      0.4811233      0.4280971

 **********************************************************************

            Population analysis using the SCF density.

 **********************************************************************

 Orbital symmetries:
       Occupied  (A) (A) (A) (A) (A) (A) (A) (A) (A) (A) (A) (A)
                 (A) (A) (A) (A) (A) (A) (A) (A) (A) (A) (A) (A)
                 (A) (A) (A) (A) (A) (A) (A) (A) (A) (A) (A) (A)
                 (A) (A) (A) (A)
       Virtual   (A) (A) (A) (A) (A) (A) (A) (A) (A) (A) (A) (A)
                 (A) (A) (A) (A) (A) (A) (A) (A) (A) (A) (A) (A)
                 (A) (A) (A) (A) (A) (A) (A) (A) (A) (A) (A) (A)
                 (A) (A) (A) (A) (A) (A) (A) (A) (A) (A) (A) (A)
                 (A) (A) (A) (A) (A) (A) (A) (A) (A) (A) (A) (A)
                 (A) (A) (A) (A) (A) (A) (A) (A) (A) (A) (A) (A)
                 (A) (A) (A) (A) (A) (A) (A) (A) (A) (A) (A) (A)
                 (A) (A) (A) (A) (A) (A) (A) (A) (A) (A) (A) (A)
                 (A) (A) (A) (A) (A) (A) (A) (A) (A) (A) (A) (A)
                 (A) (A) (A) (A) (A) (A) (A) (A) (A) (A) (A) (A)
                 (A) (A) (A) (A) (A) (A) (A) (A) (A) (A) (A) (A)
 The electronic state is 1-A.
 Alpha  occ. eigenvalues --  -18.97222 -18.94704 -18.94220 -18.92306 -10.13591
 Alpha  occ. eigenvalues --  -10.11338 -10.05762 -10.05471 -10.04546 -10.03956
 Alpha  occ. eigenvalues --   -0.89418  -0.86361  -0.80945  -0.77783  -0.63704
 Alpha  occ. eigenvalues --   -0.62131  -0.51183  -0.49456  -0.41845  -0.35350
 Alpha  occ. eigenvalues --   -0.32745  -0.31198  -0.30848  -0.29442  -0.28590
 Alpha  occ. eigenvalues --   -0.27034  -0.26104  -0.25020  -0.23955  -0.23403
 Alpha  occ. eigenvalues --   -0.22604  -0.21174  -0.21000  -0.19208  -0.16965
 Alpha  occ. eigenvalues --   -0.11744  -0.09127  -0.09068  -0.08285  -0.06415
 Alpha virt. eigenvalues --    0.18809   0.20914   0.23281   0.24310   0.26911
 Alpha virt. eigenvalues --    0.28001   0.28174   0.28257   0.29148   0.29396
 Alpha virt. eigenvalues --    0.31607   0.33113   0.36092   0.37400   0.37852
 Alpha virt. eigenvalues --    0.39920   0.43716   0.48654   0.50095   0.54465
 Alpha virt. eigenvalues --    0.57970   0.65917   0.66681   0.67255   0.68144
 Alpha virt. eigenvalues --    0.69269   0.71449   0.72694   0.73444   0.75842
 Alpha virt. eigenvalues --    0.76480   0.79517   0.81304   0.83042   0.83710
 Alpha virt. eigenvalues --    0.86234   0.88106   0.89594   0.91046   0.94002
 Alpha virt. eigenvalues --    0.95477   0.97505   0.99662   1.00696   1.00935
 Alpha virt. eigenvalues --    1.02097   1.03110   1.05159   1.06725   1.07144
 Alpha virt. eigenvalues --    1.07803   1.08033   1.09030   1.10913   1.13279
 Alpha virt. eigenvalues --    1.14395   1.16064   1.22935   1.23871   1.24508
 Alpha virt. eigenvalues --    1.25435   1.27112   1.28128   1.40268   1.48993
 Alpha virt. eigenvalues --    1.53948   1.55110   1.56107   1.58459   1.61800
 Alpha virt. eigenvalues --    1.66075   1.66980   1.67744   1.73435   1.77021
 Alpha virt. eigenvalues --    1.82811   1.85328   1.87418   1.92276   1.95543
 Alpha virt. eigenvalues --    1.96276   1.97627   1.98242   2.00315   2.00859
 Alpha virt. eigenvalues --    2.01575   2.03692   2.04694   2.05785   2.06723
 Alpha virt. eigenvalues --    2.08709   2.12384   2.13452   2.14751   2.15889
 Alpha virt. eigenvalues --    2.20985   2.22542   2.28385   2.30308   2.38409
 Alpha virt. eigenvalues --    2.40100   2.42692   2.44366   2.47402   2.48571
 Alpha virt. eigenvalues --    2.53472   2.57386   2.61380   2.65865   2.70651
 Alpha virt. eigenvalues --    2.70926   2.82506   2.85668   2.88330   2.96519
 Alpha virt. eigenvalues --    3.00229   3.06581   3.09420   3.13131   3.19066
 Alpha virt. eigenvalues --    3.26837   3.29578   4.06199   4.19520   4.25016
 Alpha virt. eigenvalues --    4.27318   4.37475   4.44574   4.45954   4.47263
 Alpha virt. eigenvalues --    4.65886   4.67535
          Condensed to atoms (all electrons):
              1          2          3          4          5          6
     1  C    5.312498   0.343432   0.349957   0.315687  -0.118570  -0.105127
     2  H    0.343432   0.634138  -0.034975  -0.027235   0.003667   0.008349
     3  H    0.349957  -0.034975   0.631629  -0.022429   0.001201   0.000954
     4  C    0.315687  -0.027235  -0.022429   4.264409   0.357055   0.550945
     5  O   -0.118570   0.003667   0.001201   0.357055   8.422447  -0.083426
     6  O   -0.105127   0.008349   0.000954   0.550945  -0.083426   8.194381
     7  C    0.311888  -0.038642  -0.036958  -0.023297   0.003640   0.002727
     8  H   -0.027349  -0.002898  -0.004636   0.003059   0.000418  -0.000076
     9  H   -0.032073   0.005306  -0.003473  -0.003401   0.013055   0.000179
    10  H   -0.037700  -0.003787   0.005531  -0.001577   0.000843   0.000252
    11  C   -0.000011   0.000000   0.000000  -0.000055   0.003632  -0.000029
    12  C    0.000000   0.000000   0.000000  -0.000004  -0.000159  -0.000002
    13  H    0.000000   0.000000   0.000000   0.000000   0.000002   0.000000
    14  H    0.000000   0.000000   0.000000   0.000000   0.000003   0.000000
    15  C    0.000000   0.000000   0.000000   0.000001  -0.000001  -0.000001
    16  H    0.000000   0.000000   0.000000   0.000001   0.000001   0.000000
    17  H    0.000000   0.000000   0.000000   0.000000   0.000000   0.000000
    18  H    0.000000   0.000000   0.000000   0.000001   0.000011   0.000001
    19  O   -0.000176   0.000003   0.000002   0.005826  -0.079170  -0.000631
    20  H    0.004465  -0.000109  -0.000111  -0.001543   0.116916   0.005951
    21  O   -0.000001   0.000000   0.000000  -0.000006  -0.000552   0.000000
              7          8          9         10         11         12
     1  C    0.311888  -0.027349  -0.032073  -0.037700  -0.000011   0.000000
     2  H   -0.038642  -0.002898   0.005306  -0.003787   0.000000   0.000000
     3  H   -0.036958  -0.004636  -0.003473   0.005531   0.000000   0.000000
     4  C   -0.023297   0.003059  -0.003401  -0.001577  -0.000055  -0.000004
     5  O    0.003640   0.000418   0.013055   0.000843   0.003632  -0.000159
     6  O    0.002727  -0.000076   0.000179   0.000252  -0.000029  -0.000002
     7  C    5.112853   0.343610   0.369954   0.380496   0.000002   0.000000
     8  H    0.343610   0.672578  -0.032556  -0.038673   0.000000   0.000000
     9  H    0.369954  -0.032556   0.552596  -0.029062   0.000000   0.000000
    10  H    0.380496  -0.038673  -0.029062   0.592753   0.000001   0.000000
    11  C    0.000002   0.000000   0.000000   0.000001   4.268648   0.322737
    12  C    0.000000   0.000000   0.000000   0.000000   0.322737   5.284486
    13  H    0.000000   0.000000   0.000000   0.000000  -0.022717   0.347857
    14  H    0.000000   0.000000   0.000000   0.000000  -0.028015   0.344468
    15  C    0.000000   0.000000   0.000000   0.000000  -0.025481   0.327359
    16  H    0.000000   0.000000   0.000000   0.000000  -0.001502  -0.038305
    17  H    0.000000   0.000000   0.000000   0.000000   0.003114  -0.028493
    18  H    0.000000   0.000000   0.000000   0.000000  -0.004292  -0.032076
    19  O    0.000002   0.000000   0.000012   0.000001   0.339045  -0.119113
    20  H   -0.000201   0.000004  -0.000125  -0.000045  -0.000313   0.004112
    21  O   -0.000001   0.000000   0.000000   0.000000   0.567067  -0.097546
             13         14         15         16         17         18
     1  C    0.000000   0.000000   0.000000   0.000000   0.000000   0.000000
     2  H    0.000000   0.000000   0.000000   0.000000   0.000000   0.000000
     3  H    0.000000   0.000000   0.000000   0.000000   0.000000   0.000000
     4  C    0.000000   0.000000   0.000001   0.000001   0.000000   0.000001
     5  O    0.000002   0.000003  -0.000001   0.000001   0.000000   0.000011
     6  O    0.000000   0.000000  -0.000001   0.000000   0.000000   0.000001
     7  C    0.000000   0.000000   0.000000   0.000000   0.000000   0.000000
     8  H    0.000000   0.000000   0.000000   0.000000   0.000000   0.000000
     9  H    0.000000   0.000000   0.000000   0.000000   0.000000   0.000000
    10  H    0.000000   0.000000   0.000000   0.000000   0.000000   0.000000
    11  C   -0.022717  -0.028015  -0.025481  -0.001502   0.003114  -0.004292
    12  C    0.347857   0.344468   0.327359  -0.038305  -0.028493  -0.032076
    13  H    0.622430  -0.033791  -0.035844   0.005512  -0.005002  -0.003550
    14  H   -0.033791   0.624061  -0.036753  -0.003537  -0.003228   0.005051
    15  C   -0.035844  -0.036753   5.093979   0.380299   0.351923   0.373847
    16  H    0.005512  -0.003537   0.380299   0.586999  -0.037822  -0.028716
    17  H   -0.005002  -0.003228   0.351923  -0.037822   0.654804  -0.031812
    18  H   -0.003550   0.005051   0.373847  -0.028716  -0.031812   0.542094
    19  O    0.001929   0.004046   0.002894   0.000446   0.000274   0.011400
    20  H   -0.000150  -0.000090  -0.000200  -0.000047   0.000008  -0.000032
    21  O    0.001207   0.008087   0.001647   0.000411  -0.000078   0.000153
             19         20         21
     1  C   -0.000176   0.004465  -0.000001
     2  H    0.000003  -0.000109   0.000000
     3  H    0.000002  -0.000111   0.000000
     4  C    0.005826  -0.001543  -0.000006
     5  O   -0.079170   0.116916  -0.000552
     6  O   -0.000631   0.005951   0.000000
     7  C    0.000002  -0.000201  -0.000001
     8  H    0.000000   0.000004   0.000000
     9  H    0.000012  -0.000125   0.000000
    10  H    0.000001  -0.000045   0.000000
    11  C    0.339045  -0.000313   0.567067
    12  C   -0.119113   0.004112  -0.097546
    13  H    0.001929  -0.000150   0.001207
    14  H    0.004046  -0.000090   0.008087
    15  C    0.002894  -0.000200   0.001647
    16  H    0.000446  -0.000047   0.000411
    17  H    0.000274   0.000008  -0.000078
    18  H    0.011400  -0.000032   0.000153
    19  O    8.434107   0.108918  -0.082891
    20  H    0.108918   0.283851   0.006874
    21  O   -0.082891   0.006874   8.139301
 Mulliken atomic charges:
              1
     1  C   -0.316918
     2  H    0.112751
     3  H    0.113308
     4  C    0.582565
     5  O   -0.641012
     6  O   -0.574448
     7  C   -0.426072
     8  H    0.086517
     9  H    0.159588
    10  H    0.130966
    11  C    0.578168
    12  C   -0.315320
    13  H    0.122116
    14  H    0.119697
    15  C   -0.433670
    16  H    0.136260
    17  H    0.096313
    18  H    0.167921
    19  O   -0.626924
    20  H    0.471867
    21  O   -0.543672
 Sum of Mulliken atomic charges =  -1.00000
 Mulliken charges with hydrogens summed into heavy atoms:
              1
     1  C   -0.090860
     4  C    0.582565
     5  O   -0.641012
     6  O   -0.574448
     7  C   -0.049001
    11  C    0.578168
    12  C   -0.073508
    15  C   -0.033177
    19  O   -0.155056
    21  O   -0.543672
 Sum of Mulliken charges with hydrogens summed into heavy atoms =  -1.00000
 Electronic spatial extent (au):  <R**2>=           2635.0772
 Charge=             -1.0000 electrons
 Dipole moment (field-independent basis, Debye):
    X=              1.1230    Y=             -0.2312    Z=             -1.2323  Tot=              1.6833
 Quadrupole moment (field-independent basis, Debye-Ang):
   XX=            -77.9480   YY=            -76.8999   ZZ=            -63.4689
   XY=              6.2489   XZ=             -0.2296   YZ=              0.0674
 Traceless Quadrupole moment (field-independent basis, Debye-Ang):
   XX=             -5.1758   YY=             -4.1276   ZZ=              9.3034
   XY=              6.2489   XZ=             -0.2296   YZ=              0.0674
 Octapole moment (field-independent basis, Debye-Ang**2):
  XXX=             11.8584  YYY=             -1.9245  ZZZ=             -0.0201  XYY=              2.9559
  XXY=              0.4955  XXZ=             -5.5200  XZZ=              0.3040  YZZ=              0.2337
  YYZ=            -10.8280  XYZ=             10.5300
 Hexadecapole moment (field-independent basis, Debye-Ang**3):
 XXXX=          -3207.7857 YYYY=           -507.9146 ZZZZ=           -128.2465 XXXY=            -49.9558
 XXXZ=             -0.7140 YYYX=             15.2094 YYYZ=             -0.9965 ZZZX=             -0.0346
 ZZZY=              0.0288 XXYY=           -634.0173 XXZZ=           -518.9485 YYZZ=           -101.3611
 XXYZ=             -0.6368 YYXZ=             -0.3587 ZZXY=             -2.3636
 N-N= 5.191496960490D+02 E-N=-2.307182929510D+03  KE= 5.315121569033D+02
 1\1\GINC-QUAD21\FOpt\RB3LYP\6-31G(d)\C6H11O4(1-)\DIOGOM\02-Jul-2014\0\
 \# opt b3lyp/6-31g(d) geom=connectivity\\Title Card Required\\-1,1\C,0
 .1550000451,-0.0316784612,0.0183611949\H,0.5979459419,-0.7615951032,-0
 .6694494047\H,0.2078406135,0.944782991,-0.4884155245\C,-1.3457905559,-
 0.3830532394,0.1754519197\O,-1.8802320202,0.1036859,1.2453464086\O,-1.
 8955389211,-1.0420635681,-0.7140916909\C,0.9313061026,0.0402035985,1.3
 356958142\H,1.9738275509,0.3540918754,1.1799413097\H,0.4447794836,0.74
 40778186,2.0161546255\H,0.9454800772,-0.935344915,1.8371333209\C,-4.66
 78284684,-0.8180695208,2.676598396\C,-6.2026620008,-0.869560098,2.8055
 911057\H,-6.5399196651,0.1308738701,3.1164746615\H,-6.4435138647,-1.55
 74480476,3.6234842008\C,-6.9234230944,-1.2631777529,1.5119672876\H,-6.
 6388387406,-2.2740560839,1.1954604059\H,-8.0151301614,-1.2445791074,1.
 6362961479\H,-6.6468062264,-0.5789628412,0.7055732405\O,-4.2818008591,
 -0.2197218085,1.5830909104\H,-3.1487615211,-0.1479124038,1.4305684243\
 O,-3.9564472955,-1.2863300326,3.5620078659\\Version=AM64L-G09RevA.02\S
 tate=1-A\HF=-536.2573929\RMSD=4.255e-09\RMSF=3.305e-06\Dipole=-0.46693
 18,0.4242258,0.201426\Quadrupole=-0.9021955,6.7063654,-5.8041699,-1.24
 77857,4.0358928,0.2554273\PG=C01 [X(C6H11O4)]\\@


 SIC AS THE CAWSE OF EWERY THING IS, SIC WILBE THE EFFECT.
 -- PROVERBS AND REASONS OF THE YEAR 1585
           AS REPRINTED IN PAISLEY MAGAZINE 1828.
 Job cpu time:  0 days  0 hours 32 minutes 42.9 seconds.
 File lengths (MBytes):  RWF=     23 Int=      0 D2E=      0 Chk=      3 Scr=      1
 Normal termination of Gaussian 09 at Wed Jul  2 19:38:07 2014.
