 Entering Gaussian System, Link 0=g09
 Input=MOH.com
 Output=MOH.log
 Initial command:
 /opt/programs/gaussian/g09/d_pgi133/l1.exe "/scratch/users/ze/lixo/Gau-20785.inp" -scrdir="/scratch/users/ze/lixo/"
 Entering Link 1 = /opt/programs/gaussian/g09/d_pgi133/l1.exe PID=     20787.
  
 Copyright (c) 1988,1990,1992,1993,1995,1998,2003,2009,2013,
            Gaussian, Inc.  All Rights Reserved.
  
 This is part of the Gaussian(R) 09 program.  It is based on
 the Gaussian(R) 03 system (copyright 2003, Gaussian, Inc.),
 the Gaussian(R) 98 system (copyright 1998, Gaussian, Inc.),
 the Gaussian(R) 94 system (copyright 1995, Gaussian, Inc.),
 the Gaussian 92(TM) system (copyright 1992, Gaussian, Inc.),
 the Gaussian 90(TM) system (copyright 1990, Gaussian, Inc.),
 the Gaussian 88(TM) system (copyright 1988, Gaussian, Inc.),
 the Gaussian 86(TM) system (copyright 1986, Carnegie Mellon
 University), and the Gaussian 82(TM) system (copyright 1983,
 Carnegie Mellon University). Gaussian is a federally registered
 trademark of Gaussian, Inc.
  
 This software contains proprietary and confidential information,
 including trade secrets, belonging to Gaussian, Inc.
  
 This software is provided under written license and may be
 used, copied, transmitted, or stored only in accord with that
 written license.
  
 The following legend is applicable only to US Government
 contracts under FAR:
  
                    RESTRICTED RIGHTS LEGEND
  
 Use, reproduction and disclosure by the US Government is
 subject to restrictions as set forth in subparagraphs (a)
 and (c) of the Commercial Computer Software - Restricted
 Rights clause in FAR 52.227-19.
  
 Gaussian, Inc.
 340 Quinnipiac St., Bldg. 40, Wallingford CT 06492
  
  
 ---------------------------------------------------------------
 Warning -- This program may not be used in any manner that
 competes with the business of Gaussian, Inc. or will provide
 assistance to any competitor of Gaussian, Inc.  The licensee
 of this program is prohibited from giving any competitor of
 Gaussian, Inc. access to this program.  By using this program,
 the user acknowledges that Gaussian, Inc. is engaged in the
 business of creating and licensing software in the field of
 computational chemistry and represents and warrants to the
 licensee that it is not a competitor of Gaussian, Inc. and that
 it will not use this program in any manner prohibited above.
 ---------------------------------------------------------------
  

 Cite this work as:
 Gaussian 09, Revision D.01,
 M. J. Frisch, G. W. Trucks, H. B. Schlegel, G. E. Scuseria, 
 M. A. Robb, J. R. Cheeseman, G. Scalmani, V. Barone, B. Mennucci, 
 G. A. Petersson, H. Nakatsuji, M. Caricato, X. Li, H. P. Hratchian, 
 A. F. Izmaylov, J. Bloino, G. Zheng, J. L. Sonnenberg, M. Hada, 
 M. Ehara, K. Toyota, R. Fukuda, J. Hasegawa, M. Ishida, T. Nakajima, 
 Y. Honda, O. Kitao, H. Nakai, T. Vreven, J. A. Montgomery, Jr., 
 J. E. Peralta, F. Ogliaro, M. Bearpark, J. J. Heyd, E. Brothers, 
 K. N. Kudin, V. N. Staroverov, T. Keith, R. Kobayashi, J. Normand, 
 K. Raghavachari, A. Rendell, J. C. Burant, S. S. Iyengar, J. Tomasi, 
 M. Cossi, N. Rega, J. M. Millam, M. Klene, J. E. Knox, J. B. Cross, 
 V. Bakken, C. Adamo, J. Jaramillo, R. Gomperts, R. E. Stratmann, 
 O. Yazyev, A. J. Austin, R. Cammi, C. Pomelli, J. W. Ochterski, 
 R. L. Martin, K. Morokuma, V. G. Zakrzewski, G. A. Voth, 
 P. Salvador, J. J. Dannenberg, S. Dapprich, A. D. Daniels, 
 O. Farkas, J. B. Foresman, J. V. Ortiz, J. Cioslowski, 
 and D. J. Fox, Gaussian, Inc., Wallingford CT, 2013.
 
 ******************************************
 Gaussian 09:  ES64L-G09RevD.01 24-Apr-2013
                23-Jun-2015 
 ******************************************
 %chk=molecule
 ----------------------------------------------------------------------
 #HF/6-31G* SCF=tight Test Pop=MK iop(6/33=2) iop(6/42=6) opt iop(6/50=
 1)
 ----------------------------------------------------------------------
 1/18=20,19=15,38=1/1,3;
 2/9=110,12=2,17=6,18=5,40=1/2;
 3/5=1,6=6,7=1,11=9,16=1,25=1,30=1,71=1/1,2,3;
 4//1;
 5/5=2,32=2,38=5/2;
 6/7=2,8=2,9=2,10=2,15=8,20=1,28=1,33=2,42=6,50=1/1,2;
 7//1,2,3,16;
 1/18=20,19=15/3(2);
 2/9=110/2;
 99//99;
 2/9=110/2;
 3/5=1,6=6,7=1,11=9,16=1,25=1,30=1,71=1/1,2,3;
 4/5=5,16=3,69=1/1;
 5/5=2,32=2,38=5/2;
 7//1,2,3,16;
 1/18=20,19=15/3(-5);
 2/9=110/2;
 6/7=2,8=2,9=2,10=2,15=8,19=2,20=1,28=1,33=2,42=6,50=1/1,2;
 99/9=1/99;
 ---------------------
 remark line goes here
 ---------------------
 Symbolic Z-matrix:
 Charge =  0 Multiplicity = 1
 C                    -1.0797   -0.1671    0. 
 H                    -0.723    -1.1759    0. 
 H                    -0.723     0.3373   -0.8737 
 H                    -2.1497   -0.1671    0. 
 O                    -0.603     0.507     1.1676 
 H                    -0.9228    1.4122    1.168 
 

 GradGradGradGradGradGradGradGradGradGradGradGradGradGradGradGradGradGrad
 Berny optimization.
 Initialization pass.
                           ----------------------------
                           !    Initial Parameters    !
                           ! (Angstroms and Degrees)  !
 --------------------------                            --------------------------
 ! Name  Definition              Value          Derivative Info.                !
 --------------------------------------------------------------------------------
 ! R1    R(1,2)                  1.07           estimate D2E/DX2                !
 ! R2    R(1,3)                  1.07           estimate D2E/DX2                !
 ! R3    R(1,4)                  1.07           estimate D2E/DX2                !
 ! R4    R(1,5)                  1.43           estimate D2E/DX2                !
 ! R5    R(5,6)                  0.96           estimate D2E/DX2                !
 ! A1    A(2,1,3)              109.4686         estimate D2E/DX2                !
 ! A2    A(2,1,4)              109.473          estimate D2E/DX2                !
 ! A3    A(2,1,5)              109.4693         estimate D2E/DX2                !
 ! A4    A(3,1,4)              109.4722         estimate D2E/DX2                !
 ! A5    A(3,1,5)              109.4718         estimate D2E/DX2                !
 ! A6    A(4,1,5)              109.4724         estimate D2E/DX2                !
 ! A7    A(1,5,6)              109.4975         estimate D2E/DX2                !
 ! D1    D(2,1,5,6)            179.9988         estimate D2E/DX2                !
 ! D2    D(3,1,5,6)             60.0028         estimate D2E/DX2                !
 ! D3    D(4,1,5,6)            -59.9995         estimate D2E/DX2                !
 --------------------------------------------------------------------------------
 Trust Radius=3.00D-01 FncErr=1.00D-07 GrdErr=1.00D-07
 Number of steps in this run=     25 maximum allowed number of steps=    100.
 GradGradGradGradGradGradGradGradGradGradGradGradGradGradGradGradGradGrad

                          Input orientation:                          
 ---------------------------------------------------------------------
 Center     Atomic      Atomic             Coordinates (Angstroms)
 Number     Number       Type             X           Y           Z
 ---------------------------------------------------------------------
      1          6           0       -1.079700   -0.167100    0.000000
      2          1           0       -0.723000   -1.175900    0.000000
      3          1           0       -0.723000    0.337300   -0.873700
      4          1           0       -2.149700   -0.167100    0.000000
      5          8           0       -0.603000    0.507000    1.167600
      6          1           0       -0.922800    1.412200    1.168000
 ---------------------------------------------------------------------
                    Distance matrix (angstroms):
                    1          2          3          4          5
     1  C    0.000000
     2  H    1.070006   0.000000
     3  H    1.070050   1.747320   0.000000
     4  H    1.070000   1.747327   1.747353   0.000000
     5  O    1.430015   2.051790   2.051854   2.051824   0.000000
     6  H    1.970541   2.846472   2.316003   2.315965   0.960031
                    6
     6  H    0.000000
 Stoichiometry    CH4O
 Framework group  C1[X(CH4O)]
 Deg. of freedom    12
 Full point group                 C1      NOp   1
 Largest Abelian subgroup         C1      NOp   1
 Largest concise Abelian subgroup C1      NOp   1
                         Standard orientation:                         
 ---------------------------------------------------------------------
 Center     Atomic      Atomic             Coordinates (Angstroms)
 Number     Number       Type             X           Y           Z
 ---------------------------------------------------------------------
      1          6           0       -0.674967   -0.019119   -0.000012
      2          1           0       -1.133285    0.947761    0.000003
      3          1           0       -0.978004   -0.557453    0.873699
      4          1           0       -0.977978   -0.557481   -0.873654
      5          8           0        0.747492    0.127688    0.000002
      6          1           0        1.159132   -0.739614    0.000008
 ---------------------------------------------------------------------
 Rotational constants (GHZ):    132.1331117     24.7229898     23.8506720
 Standard basis: 6-31G(d) (6D, 7F)
 There are    38 symmetry adapted cartesian basis functions of A   symmetry.
 There are    38 symmetry adapted basis functions of A   symmetry.
    38 basis functions,    72 primitive gaussians,    38 cartesian basis functions
     9 alpha electrons        9 beta electrons
       nuclear repulsion energy        40.4264019521 Hartrees.
 NAtoms=    6 NActive=    6 NUniq=    6 SFac= 1.00D+00 NAtFMM=   60 NAOKFM=F Big=F
 Integral buffers will be    131072 words long.
 Raffenetti 1 integral format.
 Two-electron integral symmetry is turned on.
 One-electron integrals computed using PRISM.
 NBasis=    38 RedAO= T EigKep=  9.49D-03  NBF=    38
 NBsUse=    38 1.00D-06 EigRej= -1.00D+00 NBFU=    38
 ExpMin= 1.61D-01 ExpMax= 5.48D+03 ExpMxC= 8.25D+02 IAcc=1 IRadAn=         1 AccDes= 0.00D+00
 Harris functional with IExCor=  205 and IRadAn=       1 diagonalized for initial guess.
 HarFok:  IExCor=  205 AccDes= 0.00D+00 IRadAn=         1 IDoV= 1 UseB2=F ITyADJ=14
 ICtDFT=  3500011 ScaDFX=  1.000000  1.000000  1.000000  1.000000
 FoFCou: FMM=F IPFlag=           0 FMFlag=      100000 FMFlg1=           0
         NFxFlg=           0 DoJE=T BraDBF=F KetDBF=T FulRan=T
         wScrn=  0.000000 ICntrl=     500 IOpCl=  0 I1Cent=   200000004 NGrid=           0
         NMat0=    1 NMatS0=      1 NMatT0=    0 NMatD0=    1 NMtDS0=    0 NMtDT0=    0
 Petite list used in FoFCou.
 Keep R1 ints in memory in canonical form, NReq=1132896.
 Requested convergence on RMS density matrix=1.00D-08 within 128 cycles.
 Requested convergence on MAX density matrix=1.00D-06.
 Requested convergence on             energy=1.00D-06.
 No special actions if energy rises.
 SCF Done:  E(RHF) =  -115.033566850     A.U. after   11 cycles
            NFock= 11  Conv=0.38D-08     -V/T= 2.0017

 **********************************************************************

            Population analysis using the SCF density.

 **********************************************************************

 Orbital symmetries:
 BldTbl:  Degeneracy threshold= 1.00D-02
       Occupied  (A) (A) (A) (A) (A) (A) (A) (A) (A)
       Virtual   (A) (A) (A) (A) (A) (A) (A) (A) (A) (A) (A) (A)
                 (A) (A) (A) (A) (A) (A) (A) (A) (A) (A) (A) (A)
                 (A) (A) (A) (A) (A)
 The electronic state is 1-A.
 Alpha  occ. eigenvalues --  -20.55290 -11.26416  -1.34389  -0.93062  -0.68197
 Alpha  occ. eigenvalues --   -0.62134  -0.59321  -0.49788  -0.44424
 Alpha virt. eigenvalues --    0.22470   0.28075   0.32831   0.33049   0.37650
 Alpha virt. eigenvalues --    0.75939   0.76339   0.78627   1.05883   1.14655
 Alpha virt. eigenvalues --    1.14734   1.19401   1.22969   1.25141   1.27777
 Alpha virt. eigenvalues --    1.41519   1.71544   1.76661   1.87960   2.04561
 Alpha virt. eigenvalues --    2.38571   2.41288   2.51798   2.70069   2.71783
 Alpha virt. eigenvalues --    2.80243   3.15273   4.12219   4.65332
          Condensed to atoms (all electrons):
               1          2          3          4          5          6
     1  C    4.779535   0.401402   0.395851   0.395852   0.215149  -0.024555
     2  H    0.401402   0.512952  -0.033231  -0.033227  -0.030756   0.004710
     3  H    0.395851  -0.033231   0.575090  -0.042219  -0.038863  -0.003832
     4  H    0.395852  -0.033227  -0.042219   0.575067  -0.038862  -0.003832
     5  O    0.215149  -0.030756  -0.038863  -0.038862   8.377014   0.260603
     6  H   -0.024555   0.004710  -0.003832  -0.003832   0.260603   0.331955
 Mulliken charges:
               1
     1  C   -0.163235
     2  H    0.178148
     3  H    0.147203
     4  H    0.147219
     5  O   -0.744286
     6  H    0.434950
 Sum of Mulliken charges =   0.00000
 Mulliken charges with hydrogens summed into heavy atoms:
               1
     1  C    0.309336
     5  O   -0.309336
 DipInt: DoE/N= T F RetVal/Mat= T F Init=T NMatP=  1 IDeriv=0 Min/MaxMlt=  0  4
 Entering OneElI...
 OneElI was handed    33549742 working-precision words.
 Multipole integrals L=0 to 4 MinM= 0 MaxM= 0.
 Requested accuracy = 0.1000D-12
 ShPair: Thresh= 1.00D-13 NBox=     0 BxSize= 0.00D+00 RnKept= 5.38D+00
         NSMCal=                  136 NSMKep=                 136
 PrsmSu:  NPrtUS=   1 ThrOK=F IAlg=1 NPAlg=1 LenDen=           0.
 Prism:   IPart=     0 DynPar=F LinDyn=F Incr=           1.
 PRISM was handed    33533479 working-precision words and   136 shell-pairs
 IPart=  0 NShTot=         136 NBatch=          27 AvBLen=         5.0
 PrSmSu:  NxtVal=              2.
 Electronic moments (au):
        -18.00000000         -0.40810730         -0.65746173         -0.00001585
        -51.20757262        -16.77673211        -15.54586869         -1.81973814
          0.00002877          0.00004573          7.62844959         -1.91286506
         -0.00085224          8.50342678         -1.16719995         -0.00054461
         10.75650210          4.88518734         -0.00003795         -0.00014287
       -271.37911200        -66.21302136        -63.57830574          1.64375116
          0.00134244          6.04258727          0.00023721          0.00176329
          0.00077246        -63.89125129        -54.95923261        -22.68954768
          0.00055737          0.00007943        -10.60989143
 Electronic spatial extent (au):  <R**2>=             83.5302
 DipInt: DoE/N= F T RetVal/Mat= T F Init=T NMatP=  1 IDeriv=0 Min/MaxMlt=  0  4
 Nuclear    moments (au):
         18.00000000          0.00000000          0.00000000          0.00000000
         41.93964650          7.85436230          5.45166607          0.00000000
          0.00000000          0.00000000         -1.84033170          0.78862133
          0.00069666         -6.04473772         -2.18911524          0.00052537
        -10.07541918         -5.74311393         -0.00004463          0.00002670
        115.12049498         16.59581585         14.86033150        -13.09055455
         -0.00089472        -13.80367406          0.00018550         -0.00150827
         -0.00049272         32.60807999         18.62074277          6.05014269
         -0.00035215          0.00010951         10.61405439
 Total      moments (au):
          0.00000000         -0.40810730         -0.65746173         -0.00001585
         -9.26792612         -8.92236981        -10.09420261         -1.81973814
          0.00002877          0.00004573          5.78811788         -1.12424373
         -0.00015558          2.45868906         -3.35631519         -0.00001924
          0.68108293         -0.85792658         -0.00008258         -0.00011617
       -156.25861701        -49.61720551        -48.71797424        -11.44680339
          0.00044772         -7.76108679          0.00042272          0.00025502
          0.00027975        -31.28317130        -36.33848984        -16.63940499
          0.00020522          0.00018894          0.00416296
 Traceless Quadrup. (au):
          0.16024006          0.50579637         -0.66603643         -1.81973814
          0.00002877          0.00004573
 Charge=              0.0000 electrons
 Dipole moment (field-independent basis, Debye):
    X=             -1.0373    Y=             -1.6711    Z=              0.0000  Tot=              1.9669
 Quadrupole moment (field-independent basis, Debye-Ang):
   XX=            -12.4657   YY=            -12.0009   ZZ=            -13.5770
   XY=             -2.4476   XZ=              0.0000   YZ=              0.0001
 Traceless Quadrupole moment (field-independent basis, Debye-Ang):
   XX=              0.2155   YY=              0.6803   ZZ=             -0.8958
   XY=             -2.4476   XZ=              0.0000   YZ=              0.0001
 Octapole moment (field-independent basis, Debye-Ang**2):
  XXX=              4.1198  YYY=             -0.8002  ZZZ=             -0.0001  XYY=              1.7500
  XXY=             -2.3889  XXZ=              0.0000  XZZ=              0.4848  YZZ=             -0.6106
  YYZ=             -0.0001  XYZ=             -0.0001
 Hexadecapole moment (field-independent basis, Debye-Ang**3):
 XXXX=            -58.8545 YYYY=            -18.6882 ZZZZ=            -18.3495 XXXY=             -4.3114
 XXXZ=              0.0002 YYYX=             -2.9232 YYYZ=              0.0002 ZZZX=              0.0001
 ZZZY=              0.0001 XXYY=            -11.7827 XXZZ=            -13.6868 YYZZ=             -6.2672
 XXYZ=              0.0001 YYXZ=              0.0001 ZZXY=              0.0016
 N-N= 4.042640195214D+01 E-N=-3.519033789770D+02  KE= 1.148438713527D+02
 Entering OneElI...
 OneElI was handed    33550295 working-precision words.
 Calculate electrostatic properties
    NBasis =    38  MinDer = 0  MaxDer = 0
    NGrid  =     6  NMatD  =   1
 Requested accuracy = 0.1000D-12
 ShPair: Thresh= 1.00D-13 NBox=     0 BxSize= 0.00D+00 RnKept= 5.38D+00
         NSMCal=                  136 NSMKep=                 136
 PrsmSu:  NPrtUS=   1 ThrOK=F IAlg=1 NPAlg=1 LenDen=           0.
 Prism:   IPart=     0 DynPar=F LinDyn=F Incr=           8.
 PRISM was handed    33534131 working-precision words and   136 shell-pairs
 IPart=  0 NShTot=         816 NBatch=         136 AvBLen=         6.0
 PrSmSu:  NxtVal=              9.
 --------------------------------------------------------
       Center         ----      EFG at Nuclei      ----
                      3XX-RR        3YY-RR        3ZZ-RR
 --------------------------------------------------------
     1   Atom       -0.371561      0.190908      0.180653
     2   Atom        0.066053     -0.242735      0.176682
     3   Atom        0.116028      0.046617     -0.162645
     4   Atom        0.116065      0.046607     -0.162671
     5   Atom       -1.500981     -0.480443      1.981424
     6   Atom        0.083957     -0.356407      0.272450
 --------------------------------------------------------
                        XY            XZ            YZ
 --------------------------------------------------------
     1   Atom       -0.057200      0.000011      0.000023
     2   Atom        0.191573      0.000002     -0.000004
     3   Atom       -0.071122      0.116750      0.211324
     4   Atom       -0.071146     -0.116776     -0.211396
     5   Atom        0.716032     -0.000035      0.000013
     6   Atom        0.267118     -0.000003      0.000004
 --------------------------------------------------------


 ---------------------------------------------------------------------------------
              Nuclear Quadrupole Coupling Constant in Principal Axis System
 ---------------------------------------------------------------------------------

       Atom             a.u.   MegaHertz   Gauss  10(-4) cm-1        Axes


 ---------------------------------------------------------------------------------

 No NMR shielding tensors so no spin-rotation constants.
 Leave Link  601 at Tue Jun 23 16:13:39 2015, MaxMem=    33554432 cpu:         0.1
 FitSet:  NAtFit=     6 NAtPot=     6 NAtFrz=     0 MDM=    10 TotChg=   0.00000
 Merz-Kollman atomic radii used.
 Atom Element Radius
    1     6    1.50
    2     1    1.20
    3     1    1.20
    4     1    1.20
    5     8    1.40
    6     1    1.20
 Generate VDW surfaces: Layer= 4 Dens= 6 Start= 1.400 Inc= 0.200

 **********************************************************************

            Electrostatic Properties Using The SCF Density

 **********************************************************************

       Atomic Center    1 is at  -0.674967 -0.019119 -0.000012
       Atomic Center    2 is at  -1.133285  0.947761  0.000003
       Atomic Center    3 is at  -0.978004 -0.557453  0.873699
       Atomic Center    4 is at  -0.977978 -0.557481 -0.873654
       Atomic Center    5 is at   0.747492  0.127688  0.000002
       Atomic Center    6 is at   1.159132 -0.739614  0.000008
      ESP Fit Center    7 is at   0.021001  0.382698  1.940135
      ESP Fit Center    8 is at  -0.273150  0.676849  1.940135
      ESP Fit Center    9 is at  -0.674967  0.784516  1.940135
      ESP Fit Center   10 is at  -0.154925  1.025265  1.746074
      ESP Fit Center   11 is at  -0.567318  1.142601  1.746074
      ESP Fit Center   12 is at  -0.994249  1.103040  1.746074
      ESP Fit Center   13 is at  -1.378059  0.911925  1.746074
      ESP Fit Center   14 is at  -0.058107  1.331615  1.484912
      ESP Fit Center   15 is at  -0.463640  1.450690  1.484912
      ESP Fit Center   16 is at  -1.924165  0.783691  1.484912
      ESP Fit Center   17 is at  -0.055796  1.613500  1.166685
      ESP Fit Center   18 is at  -2.370315  0.398746  1.166685
      ESP Fit Center   19 is at  -2.603741  0.190647  0.803623
      ESP Fit Center   20 is at  -2.724049  0.189252  0.409678
      ESP Fit Center   21 is at  -2.724049 -0.227491  0.409678
      ESP Fit Center   22 is at  -2.640159 -0.635702  0.409678
      ESP Fit Center   23 is at  -0.363079 -2.055017  0.409678
      ESP Fit Center   24 is at   0.040360 -1.950560  0.409678
      ESP Fit Center   25 is at  -2.734616  0.390570 -0.000012
      ESP Fit Center   26 is at  -2.774967 -0.019119 -0.000012
      ESP Fit Center   27 is at  -2.734616 -0.428809 -0.000012
      ESP Fit Center   28 is at  -2.615114 -0.822755 -0.000012
      ESP Fit Center   29 is at  -2.421053 -1.185817 -0.000012
      ESP Fit Center   30 is at  -2.159891 -1.504044 -0.000012
      ESP Fit Center   31 is at  -1.841665 -1.765206 -0.000012
      ESP Fit Center   32 is at  -1.478602 -1.959266 -0.000012
      ESP Fit Center   33 is at  -1.084657 -2.078769 -0.000012
      ESP Fit Center   34 is at  -0.674967 -2.119119 -0.000012
      ESP Fit Center   35 is at  -0.265277 -2.078769 -0.000012
      ESP Fit Center   36 is at  -2.724049  0.189252 -0.409702
      ESP Fit Center   37 is at  -2.724049 -0.227491 -0.409702
      ESP Fit Center   38 is at  -2.640159 -0.635702 -0.409702
      ESP Fit Center   39 is at  -0.363079 -2.055017 -0.409702
      ESP Fit Center   40 is at   0.040360 -1.950560 -0.409702
      ESP Fit Center   41 is at  -2.603741  0.190647 -0.803647
      ESP Fit Center   42 is at  -0.055796  1.613500 -1.166709
      ESP Fit Center   43 is at  -2.370315  0.398746 -1.166709
      ESP Fit Center   44 is at  -0.058107  1.331615 -1.484936
      ESP Fit Center   45 is at  -0.463640  1.450690 -1.484936
      ESP Fit Center   46 is at  -1.924165  0.783691 -1.484936
      ESP Fit Center   47 is at  -0.154925  1.025265 -1.746098
      ESP Fit Center   48 is at  -0.567318  1.142601 -1.746098
      ESP Fit Center   49 is at  -0.994249  1.103040 -1.746098
      ESP Fit Center   50 is at  -1.378059  0.911925 -1.746098
      ESP Fit Center   51 is at   0.021001  0.382698 -1.940159
      ESP Fit Center   52 is at  -0.273150  0.676849 -1.940159
      ESP Fit Center   53 is at  -0.674967  0.784516 -1.940159
      ESP Fit Center   54 is at  -0.915877  1.324322  1.622758
      ESP Fit Center   55 is at  -1.350693  1.324322  1.622758
      ESP Fit Center   56 is at  -0.713285  1.675222  1.454925
      ESP Fit Center   57 is at  -1.133285  1.787761  1.454925
      ESP Fit Center   58 is at  -1.553285  1.675222  1.454925
      ESP Fit Center   59 is at  -1.860746  1.367761  1.454925
      ESP Fit Center   60 is at  -1.973285  0.947761  1.454925
      ESP Fit Center   61 is at  -0.255387  1.748070  1.187942
      ESP Fit Center   62 is at  -0.603775  2.011160  1.187942
      ESP Fit Center   63 is at  -1.023676  2.130633  1.187942
      ESP Fit Center   64 is at  -1.458380  2.090351  1.187942
      ESP Fit Center   65 is at  -1.849178  1.895757  1.187942
      ESP Fit Center   66 is at  -2.143291  1.573130  1.187942
      ESP Fit Center   67 is at  -2.300997  1.166044  1.187942
      ESP Fit Center   68 is at  -2.300997  0.729477  1.187942
      ESP Fit Center   69 is at   0.068829  1.767348  0.840003
      ESP Fit Center   70 is at  -0.226155  2.085265  0.840003
      ESP Fit Center   71 is at  -0.601742  2.302110  0.840003
      ESP Fit Center   72 is at  -1.024558  2.398615  0.840003
      ESP Fit Center   73 is at  -1.457036  2.366205  0.840003
      ESP Fit Center   74 is at  -1.860746  2.207761  0.840003
      ESP Fit Center   75 is at  -2.199819  1.937359  0.840003
      ESP Fit Center   76 is at  -2.444125  1.579028  0.840003
      ESP Fit Center   77 is at  -2.571957  1.164606  0.840003
      ESP Fit Center   78 is at  -2.571957  0.730916  0.840003
      ESP Fit Center   79 is at   0.014176  2.095222  0.434819
      ESP Fit Center   80 is at  -0.321907  2.353108  0.434819
      ESP Fit Center   81 is at  -0.713285  2.515222  0.434819
      ESP Fit Center   82 is at  -1.133285  2.570516  0.434819
      ESP Fit Center   83 is at  -1.553285  2.515222  0.434819
      ESP Fit Center   84 is at  -1.944663  2.353108  0.434819
      ESP Fit Center   85 is at  -2.280746  2.095222  0.434819
      ESP Fit Center   86 is at  -2.538632  1.759138  0.434819
      ESP Fit Center   87 is at  -2.700746  1.367761  0.434819
      ESP Fit Center   88 is at  -2.756040  0.947761  0.434819
      ESP Fit Center   89 is at  -2.700746  0.527761  0.434819
      ESP Fit Center   90 is at   0.091382  2.097800  0.000003
      ESP Fit Center   91 is at  -0.233096  2.366232  0.000003
      ESP Fit Center   92 is at  -0.614136  2.545536  0.000003
      ESP Fit Center   93 is at  -1.027797  2.624446  0.000003
      ESP Fit Center   94 is at  -1.448085  2.598003  0.000003
      ESP Fit Center   95 is at  -1.848594  2.467870  0.000003
      ESP Fit Center   96 is at  -2.204157  2.242223  0.000003
      ESP Fit Center   97 is at  -2.492433  1.935240  0.000003
      ESP Fit Center   98 is at  -2.695309  1.566210  0.000003
      ESP Fit Center   99 is at  -2.800038  1.158321  0.000003
      ESP Fit Center  100 is at  -2.800038  0.737201  0.000003
      ESP Fit Center  101 is at   0.014176  2.095222 -0.434813
      ESP Fit Center  102 is at  -0.321907  2.353108 -0.434813
      ESP Fit Center  103 is at  -0.713285  2.515222 -0.434813
      ESP Fit Center  104 is at  -1.133285  2.570516 -0.434813
      ESP Fit Center  105 is at  -1.553285  2.515222 -0.434813
      ESP Fit Center  106 is at  -1.944663  2.353108 -0.434813
      ESP Fit Center  107 is at  -2.280746  2.095222 -0.434813
      ESP Fit Center  108 is at  -2.538632  1.759138 -0.434813
      ESP Fit Center  109 is at  -2.700746  1.367761 -0.434813
      ESP Fit Center  110 is at  -2.756040  0.947761 -0.434813
      ESP Fit Center  111 is at  -2.700746  0.527761 -0.434813
      ESP Fit Center  112 is at   0.068829  1.767348 -0.839997
      ESP Fit Center  113 is at  -0.226155  2.085265 -0.839997
      ESP Fit Center  114 is at  -0.601742  2.302110 -0.839997
      ESP Fit Center  115 is at  -1.024558  2.398615 -0.839997
      ESP Fit Center  116 is at  -1.457036  2.366205 -0.839997
      ESP Fit Center  117 is at  -1.860746  2.207761 -0.839997
      ESP Fit Center  118 is at  -2.199819  1.937359 -0.839997
      ESP Fit Center  119 is at  -2.444125  1.579028 -0.839997
      ESP Fit Center  120 is at  -2.571957  1.164606 -0.839997
      ESP Fit Center  121 is at  -2.571957  0.730916 -0.839997
      ESP Fit Center  122 is at  -0.255387  1.748070 -1.187937
      ESP Fit Center  123 is at  -0.603775  2.011160 -1.187937
      ESP Fit Center  124 is at  -1.023676  2.130633 -1.187937
      ESP Fit Center  125 is at  -1.458380  2.090351 -1.187937
      ESP Fit Center  126 is at  -1.849178  1.895757 -1.187937
      ESP Fit Center  127 is at  -2.143291  1.573130 -1.187937
      ESP Fit Center  128 is at  -2.300997  1.166044 -1.187937
      ESP Fit Center  129 is at  -2.300997  0.729477 -1.187937
      ESP Fit Center  130 is at  -0.713285  1.675222 -1.454920
      ESP Fit Center  131 is at  -1.133285  1.787761 -1.454920
      ESP Fit Center  132 is at  -1.553285  1.675222 -1.454920
      ESP Fit Center  133 is at  -1.860746  1.367761 -1.454920
      ESP Fit Center  134 is at  -1.973285  0.947761 -1.454920
      ESP Fit Center  135 is at  -0.915877  1.324322 -1.622753
      ESP Fit Center  136 is at  -1.350693  1.324322 -1.622753
      ESP Fit Center  137 is at  -0.978004 -0.557453  2.553699
      ESP Fit Center  138 is at  -0.543188 -0.557453  2.496455
      ESP Fit Center  139 is at  -0.760596 -0.180891  2.496455
      ESP Fit Center  140 is at  -1.195412 -0.180891  2.496455
      ESP Fit Center  141 is at  -1.412820 -0.557453  2.496455
      ESP Fit Center  142 is at  -1.195412 -0.934015  2.496455
      ESP Fit Center  143 is at  -0.760596 -0.934015  2.496455
      ESP Fit Center  144 is at  -0.138004 -0.557453  2.328622
      ESP Fit Center  145 is at  -0.250543 -0.137453  2.328622
      ESP Fit Center  146 is at  -0.558004  0.170008  2.328622
      ESP Fit Center  147 is at  -0.978004  0.282547  2.328622
      ESP Fit Center  148 is at  -1.398004  0.170008  2.328622
      ESP Fit Center  149 is at  -1.705466 -0.137453  2.328622
      ESP Fit Center  150 is at  -1.818004 -0.557453  2.328622
      ESP Fit Center  151 is at  -1.705466 -0.977453  2.328622
      ESP Fit Center  152 is at  -1.398004 -1.284914  2.328622
      ESP Fit Center  153 is at  -0.978004 -1.397453  2.328622
      ESP Fit Center  154 is at  -0.558004 -1.284914  2.328622
      ESP Fit Center  155 is at  -0.250543 -0.977453  2.328622
      ESP Fit Center  156 is at   0.209935 -0.557453  2.061639
      ESP Fit Center  157 is at   0.129716 -0.128320  2.061639
      ESP Fit Center  158 is at  -0.100107  0.242857  2.061639
      ESP Fit Center  159 is at  -0.448494  0.505947  2.061639
      ESP Fit Center  160 is at  -0.868395  0.625419  2.061639
      ESP Fit Center  161 is at  -1.303099  0.585138  2.061639
      ESP Fit Center  162 is at  -1.693898  0.390543  2.061639
      ESP Fit Center  163 is at  -1.988011  0.067916  2.061639
      ESP Fit Center  164 is at  -2.145717 -0.339170  2.061639
      ESP Fit Center  165 is at  -2.145717 -0.775736  2.061639
      ESP Fit Center  166 is at  -1.988011 -1.182823  2.061639
      ESP Fit Center  167 is at  -1.693898 -1.505449  2.061639
      ESP Fit Center  168 is at  -1.303099 -1.700044  2.061639
      ESP Fit Center  169 is at  -0.868395 -1.740325  2.061639
      ESP Fit Center  170 is at  -0.448494 -1.620853  2.061639
      ESP Fit Center  171 is at  -0.100107 -1.357763  2.061639
      ESP Fit Center  172 is at   0.129716 -0.986586  2.061639
      ESP Fit Center  173 is at  -1.705466  0.702547  1.713699
      ESP Fit Center  174 is at  -2.044538  0.432146  1.713699
      ESP Fit Center  175 is at  -2.288844  0.073814  1.713699
      ESP Fit Center  176 is at  -2.416677 -0.340608  1.713699
      ESP Fit Center  177 is at  -2.416677 -0.774298  1.713699
      ESP Fit Center  178 is at  -2.288844 -1.188720  1.713699
      ESP Fit Center  179 is at  -2.044538 -1.547052  1.713699
      ESP Fit Center  180 is at  -1.705466 -1.817453  1.713699
      ESP Fit Center  181 is at  -1.301755 -1.975898  1.713699
      ESP Fit Center  182 is at  -0.869278 -2.008307  1.713699
      ESP Fit Center  183 is at  -0.446461 -1.911802  1.713699
      ESP Fit Center  184 is at  -0.070875 -1.694957  1.713699
      ESP Fit Center  185 is at   0.224109 -1.377040  1.713699
      ESP Fit Center  186 is at   0.412280 -0.986299  1.713699
      ESP Fit Center  187 is at  -2.383352  0.253925  1.308515
      ESP Fit Center  188 is at  -2.545466 -0.137453  1.308515
      ESP Fit Center  189 is at  -2.600760 -0.557453  1.308515
      ESP Fit Center  190 is at  -2.545466 -0.977453  1.308515
      ESP Fit Center  191 is at  -2.383352 -1.368831  1.308515
      ESP Fit Center  192 is at  -2.125466 -1.704914  1.308515
      ESP Fit Center  193 is at  -1.789382 -1.962800  1.308515
      ESP Fit Center  194 is at  -1.398004 -2.124914  1.308515
      ESP Fit Center  195 is at  -0.978004 -2.180208  1.308515
      ESP Fit Center  196 is at  -0.558004 -2.124914  1.308515
      ESP Fit Center  197 is at  -0.166627 -1.962800  1.308515
      ESP Fit Center  198 is at   0.169457 -1.704914  1.308515
      ESP Fit Center  199 is at  -2.644757 -0.346893  0.873699
      ESP Fit Center  200 is at  -2.644757 -0.768013  0.873699
      ESP Fit Center  201 is at  -2.540029 -1.175902  0.873699
      ESP Fit Center  202 is at  -2.337153 -1.544932  0.873699
      ESP Fit Center  203 is at  -2.048877 -1.851915  0.873699
      ESP Fit Center  204 is at  -1.693314 -2.077562  0.873699
      ESP Fit Center  205 is at  -1.292805 -2.207696  0.873699
      ESP Fit Center  206 is at  -0.872516 -2.234138  0.873699
      ESP Fit Center  207 is at  -0.458856 -2.155228  0.873699
      ESP Fit Center  208 is at  -0.077815 -1.975924  0.873699
      ESP Fit Center  209 is at  -2.545466 -0.977453  0.438883
      ESP Fit Center  210 is at  -2.383352 -1.368831  0.438883
      ESP Fit Center  211 is at  -2.125466 -1.704914  0.438883
      ESP Fit Center  212 is at  -1.789382 -1.962800  0.438883
      ESP Fit Center  213 is at  -1.398004 -2.124914  0.438883
      ESP Fit Center  214 is at  -0.978004 -2.180208  0.438883
      ESP Fit Center  215 is at  -0.558004 -2.124914  0.438883
      ESP Fit Center  216 is at  -2.545440 -0.977481 -0.438838
      ESP Fit Center  217 is at  -2.383326 -1.368859 -0.438838
      ESP Fit Center  218 is at  -2.125440 -1.704943 -0.438838
      ESP Fit Center  219 is at  -1.789356 -1.962829 -0.438838
      ESP Fit Center  220 is at  -1.397978 -2.124943 -0.438838
      ESP Fit Center  221 is at  -0.977978 -2.180237 -0.438838
      ESP Fit Center  222 is at  -0.557978 -2.124943 -0.438838
      ESP Fit Center  223 is at  -2.644731 -0.346922 -0.873654
      ESP Fit Center  224 is at  -2.644731 -0.768041 -0.873654
      ESP Fit Center  225 is at  -2.540003 -1.175931 -0.873654
      ESP Fit Center  226 is at  -2.337127 -1.544961 -0.873654
      ESP Fit Center  227 is at  -2.048851 -1.851944 -0.873654
      ESP Fit Center  228 is at  -1.693288 -2.077591 -0.873654
      ESP Fit Center  229 is at  -1.292779 -2.207724 -0.873654
      ESP Fit Center  230 is at  -0.872490 -2.234166 -0.873654
      ESP Fit Center  231 is at  -0.458830 -2.155256 -0.873654
      ESP Fit Center  232 is at  -0.077789 -1.975952 -0.873654
      ESP Fit Center  233 is at  -2.383326  0.253896 -1.308470
      ESP Fit Center  234 is at  -2.545440 -0.137481 -1.308470
      ESP Fit Center  235 is at  -2.600734 -0.557481 -1.308470
      ESP Fit Center  236 is at  -2.545440 -0.977481 -1.308470
      ESP Fit Center  237 is at  -2.383326 -1.368859 -1.308470
      ESP Fit Center  238 is at  -2.125440 -1.704943 -1.308470
      ESP Fit Center  239 is at  -1.789356 -1.962829 -1.308470
      ESP Fit Center  240 is at  -1.397978 -2.124943 -1.308470
      ESP Fit Center  241 is at  -0.977978 -2.180237 -1.308470
      ESP Fit Center  242 is at  -0.557978 -2.124943 -1.308470
      ESP Fit Center  243 is at  -0.166601 -1.962829 -1.308470
      ESP Fit Center  244 is at   0.169483 -1.704943 -1.308470
      ESP Fit Center  245 is at  -1.705440  0.702519 -1.713654
      ESP Fit Center  246 is at  -2.044512  0.432117 -1.713654
      ESP Fit Center  247 is at  -2.288818  0.073786 -1.713654
      ESP Fit Center  248 is at  -2.416651 -0.340636 -1.713654
      ESP Fit Center  249 is at  -2.416651 -0.774326 -1.713654
      ESP Fit Center  250 is at  -2.288818 -1.188749 -1.713654
      ESP Fit Center  251 is at  -2.044512 -1.547080 -1.713654
      ESP Fit Center  252 is at  -1.705440 -1.817481 -1.713654
      ESP Fit Center  253 is at  -1.301729 -1.975926 -1.713654
      ESP Fit Center  254 is at  -0.869252 -2.008336 -1.713654
      ESP Fit Center  255 is at  -0.446435 -1.911831 -1.713654
      ESP Fit Center  256 is at  -0.070849 -1.694986 -1.713654
      ESP Fit Center  257 is at   0.224135 -1.377069 -1.713654
      ESP Fit Center  258 is at   0.412306 -0.986327 -1.713654
      ESP Fit Center  259 is at   0.209961 -0.557481 -2.061594
      ESP Fit Center  260 is at   0.129742 -0.128348 -2.061594
      ESP Fit Center  261 is at  -0.100081  0.242828 -2.061594
      ESP Fit Center  262 is at  -0.448468  0.505918 -2.061594
      ESP Fit Center  263 is at  -0.868369  0.625390 -2.061594
      ESP Fit Center  264 is at  -1.303073  0.585109 -2.061594
      ESP Fit Center  265 is at  -1.693872  0.390515 -2.061594
      ESP Fit Center  266 is at  -1.987985  0.067888 -2.061594
      ESP Fit Center  267 is at  -2.145691 -0.339198 -2.061594
      ESP Fit Center  268 is at  -2.145691 -0.775765 -2.061594
      ESP Fit Center  269 is at  -1.987985 -1.182851 -2.061594
      ESP Fit Center  270 is at  -1.693872 -1.505477 -2.061594
      ESP Fit Center  271 is at  -1.303073 -1.700072 -2.061594
      ESP Fit Center  272 is at  -0.868369 -1.740353 -2.061594
      ESP Fit Center  273 is at  -0.448468 -1.620881 -2.061594
      ESP Fit Center  274 is at  -0.100081 -1.357791 -2.061594
      ESP Fit Center  275 is at   0.129742 -0.986615 -2.061594
      ESP Fit Center  276 is at  -0.137978 -0.557481 -2.328577
      ESP Fit Center  277 is at  -0.250517 -0.137481 -2.328577
      ESP Fit Center  278 is at  -0.557978  0.169980 -2.328577
      ESP Fit Center  279 is at  -0.977978  0.282519 -2.328577
      ESP Fit Center  280 is at  -1.397978  0.169980 -2.328577
      ESP Fit Center  281 is at  -1.705440 -0.137481 -2.328577
      ESP Fit Center  282 is at  -1.817978 -0.557481 -2.328577
      ESP Fit Center  283 is at  -1.705440 -0.977481 -2.328577
      ESP Fit Center  284 is at  -1.397978 -1.284943 -2.328577
      ESP Fit Center  285 is at  -0.977978 -1.397481 -2.328577
      ESP Fit Center  286 is at  -0.557978 -1.284943 -2.328577
      ESP Fit Center  287 is at  -0.250517 -0.977481 -2.328577
      ESP Fit Center  288 is at  -0.543162 -0.557481 -2.496410
      ESP Fit Center  289 is at  -0.760570 -0.180920 -2.496410
      ESP Fit Center  290 is at  -1.195386 -0.180920 -2.496410
      ESP Fit Center  291 is at  -1.412794 -0.557481 -2.496410
      ESP Fit Center  292 is at  -1.195386 -0.934043 -2.496410
      ESP Fit Center  293 is at  -0.760570 -0.934043 -2.496410
      ESP Fit Center  294 is at  -0.977978 -0.557481 -2.553654
      ESP Fit Center  295 is at   0.747492  0.127688  1.960002
      ESP Fit Center  296 is at   1.154999  0.127688  1.917171
      ESP Fit Center  297 is at   0.951246  0.480599  1.917171
      ESP Fit Center  298 is at   0.543739  0.480599  1.917171
      ESP Fit Center  299 is at   0.339985  0.127688  1.917171
      ESP Fit Center  300 is at   0.543739 -0.225223  1.917171
      ESP Fit Center  301 is at   0.951246 -0.225223  1.917171
      ESP Fit Center  302 is at   1.544696  0.127688  1.790551
      ESP Fit Center  303 is at   1.437891  0.526290  1.790551
      ESP Fit Center  304 is at   1.146094  0.818087  1.790551
      ESP Fit Center  305 is at   0.747492  0.924892  1.790551
      ESP Fit Center  306 is at   0.348890  0.818087  1.790551
      ESP Fit Center  307 is at   0.747492 -0.669516  1.790551
      ESP Fit Center  308 is at   1.146094 -0.562711  1.790551
      ESP Fit Center  309 is at   1.437891 -0.270914  1.790551
      ESP Fit Center  310 is at   1.899551  0.127688  1.585675
      ESP Fit Center  311 is at   1.821755  0.543860  1.585675
      ESP Fit Center  312 is at   1.598874  0.903825  1.585675
      ESP Fit Center  313 is at   1.261009  1.158969  1.585675
      ESP Fit Center  314 is at   0.853791  1.274833  1.585675
      ESP Fit Center  315 is at   0.432216  1.235768  1.585675
      ESP Fit Center  316 is at   1.821755 -0.288484  1.585675
      ESP Fit Center  317 is at   2.204056  0.127688  1.311498
      ESP Fit Center  318 is at   2.145055  0.538049  1.311498
      ESP Fit Center  319 is at   1.972832  0.915166  1.311498
      ESP Fit Center  320 is at   1.701339  1.228486  1.311498
      ESP Fit Center  321 is at   1.352571  1.452625  1.311498
      ESP Fit Center  322 is at   0.954783  1.569426  1.311498
      ESP Fit Center  323 is at   0.540202  1.569426  1.311498
      ESP Fit Center  324 is at   0.142414  1.452625  1.311498
      ESP Fit Center  325 is at   2.145055 -0.282673  1.311498
      ESP Fit Center  326 is at   2.444902  0.127688  0.980002
      ESP Fit Center  327 is at   2.391575  0.549817  0.980002
      ESP Fit Center  328 is at   2.234944  0.945421  0.980002
      ESP Fit Center  329 is at   1.984851  1.289645  0.980002
      ESP Fit Center  330 is at   1.657010  1.560858  0.980002
      ESP Fit Center  331 is at   1.272021  1.742021  0.980002
      ESP Fit Center  332 is at   0.854074  1.821748  0.980002
      ESP Fit Center  333 is at   0.429429  1.795032  0.980002
      ESP Fit Center  334 is at   2.611563  0.127688  0.605675
      ESP Fit Center  335 is at   2.564827  0.542483  0.605675
      ESP Fit Center  336 is at   2.426962  0.936478  0.605675
      ESP Fit Center  337 is at   2.204882  1.289917  0.605675
      ESP Fit Center  338 is at   1.909721  1.585077  0.605675
      ESP Fit Center  339 is at   1.556282  1.807158  0.605675
      ESP Fit Center  340 is at   1.162287  1.945023  0.605675
      ESP Fit Center  341 is at   0.747492  1.991759  0.605675
      ESP Fit Center  342 is at   0.332698  1.945023  0.605675
      ESP Fit Center  343 is at   2.696755  0.127688  0.204878
      ESP Fit Center  344 is at   2.651183  0.546722  0.204878
      ESP Fit Center  345 is at   2.516595  0.946162  0.204878
      ESP Fit Center  346 is at   2.299287  1.307332  0.204878
      ESP Fit Center  347 is at   2.009418  1.613342  0.204878
      ESP Fit Center  348 is at   1.660544  1.849885  0.204878
      ESP Fit Center  349 is at   1.268975  2.005900  0.204878
      ESP Fit Center  350 is at   0.853023  2.074092  0.204878
      ESP Fit Center  351 is at   0.432137  2.051272  0.204878
      ESP Fit Center  352 is at   2.696755  0.127688 -0.204874
      ESP Fit Center  353 is at   2.651183  0.546722 -0.204874
      ESP Fit Center  354 is at   2.516595  0.946162 -0.204874
      ESP Fit Center  355 is at   2.299287  1.307332 -0.204874
      ESP Fit Center  356 is at   2.009418  1.613342 -0.204874
      ESP Fit Center  357 is at   1.660544  1.849885 -0.204874
      ESP Fit Center  358 is at   1.268975  2.005900 -0.204874
      ESP Fit Center  359 is at   0.853023  2.074092 -0.204874
      ESP Fit Center  360 is at   0.432137  2.051272 -0.204874
      ESP Fit Center  361 is at   2.611563  0.127688 -0.605671
      ESP Fit Center  362 is at   2.564827  0.542483 -0.605671
      ESP Fit Center  363 is at   2.426962  0.936478 -0.605671
      ESP Fit Center  364 is at   2.204882  1.289917 -0.605671
      ESP Fit Center  365 is at   1.909721  1.585077 -0.605671
      ESP Fit Center  366 is at   1.556282  1.807158 -0.605671
      ESP Fit Center  367 is at   1.162287  1.945023 -0.605671
      ESP Fit Center  368 is at   0.747492  1.991759 -0.605671
      ESP Fit Center  369 is at   0.332698  1.945023 -0.605671
      ESP Fit Center  370 is at   2.444902  0.127688 -0.979998
      ESP Fit Center  371 is at   2.391575  0.549817 -0.979998
      ESP Fit Center  372 is at   2.234944  0.945421 -0.979998
      ESP Fit Center  373 is at   1.984851  1.289645 -0.979998
      ESP Fit Center  374 is at   1.657010  1.560858 -0.979998
      ESP Fit Center  375 is at   1.272021  1.742021 -0.979998
      ESP Fit Center  376 is at   0.854074  1.821748 -0.979998
      ESP Fit Center  377 is at   0.429429  1.795032 -0.979998
      ESP Fit Center  378 is at   2.204056  0.127688 -1.311494
      ESP Fit Center  379 is at   2.145055  0.538049 -1.311494
      ESP Fit Center  380 is at   1.972832  0.915166 -1.311494
      ESP Fit Center  381 is at   1.701339  1.228486 -1.311494
      ESP Fit Center  382 is at   1.352571  1.452625 -1.311494
      ESP Fit Center  383 is at   0.954783  1.569426 -1.311494
      ESP Fit Center  384 is at   0.540202  1.569426 -1.311494
      ESP Fit Center  385 is at   0.142414  1.452625 -1.311494
      ESP Fit Center  386 is at   2.145055 -0.282673 -1.311494
      ESP Fit Center  387 is at   1.899551  0.127688 -1.585671
      ESP Fit Center  388 is at   1.821755  0.543860 -1.585671
      ESP Fit Center  389 is at   1.598874  0.903825 -1.585671
      ESP Fit Center  390 is at   1.261009  1.158969 -1.585671
      ESP Fit Center  391 is at   0.853791  1.274833 -1.585671
      ESP Fit Center  392 is at   0.432216  1.235768 -1.585671
      ESP Fit Center  393 is at   1.821755 -0.288484 -1.585671
      ESP Fit Center  394 is at   1.544696  0.127688 -1.790547
      ESP Fit Center  395 is at   1.437891  0.526290 -1.790547
      ESP Fit Center  396 is at   1.146094  0.818087 -1.790547
      ESP Fit Center  397 is at   0.747492  0.924892 -1.790547
      ESP Fit Center  398 is at   0.348890  0.818087 -1.790547
      ESP Fit Center  399 is at   0.747492 -0.669516 -1.790547
      ESP Fit Center  400 is at   1.146094 -0.562711 -1.790547
      ESP Fit Center  401 is at   1.437891 -0.270914 -1.790547
      ESP Fit Center  402 is at   1.154999  0.127688 -1.917167
      ESP Fit Center  403 is at   0.951246  0.480599 -1.917167
      ESP Fit Center  404 is at   0.543739  0.480599 -1.917167
      ESP Fit Center  405 is at   0.339985  0.127688 -1.917167
      ESP Fit Center  406 is at   0.543739 -0.225223 -1.917167
      ESP Fit Center  407 is at   0.951246 -0.225223 -1.917167
      ESP Fit Center  408 is at   0.747492  0.127688 -1.959998
      ESP Fit Center  409 is at   1.593948 -0.739614  1.622763
      ESP Fit Center  410 is at   0.941724 -1.116176  1.622763
      ESP Fit Center  411 is at   1.376540 -1.116176  1.622763
      ESP Fit Center  412 is at   1.999132 -0.739614  1.454930
      ESP Fit Center  413 is at   0.739132 -1.467075  1.454930
      ESP Fit Center  414 is at   1.159132 -1.579614  1.454930
      ESP Fit Center  415 is at   1.579132 -1.467075  1.454930
      ESP Fit Center  416 is at   1.886593 -1.159614  1.454930
      ESP Fit Center  417 is at   2.347071 -0.739614  1.187947
      ESP Fit Center  418 is at   2.266852 -0.310481  1.187947
      ESP Fit Center  419 is at   0.443238 -1.687610  1.187947
      ESP Fit Center  420 is at   0.834036 -1.882204  1.187947
      ESP Fit Center  421 is at   1.268741 -1.922486  1.187947
      ESP Fit Center  422 is at   1.688642 -1.803014  1.187947
      ESP Fit Center  423 is at   2.037029 -1.539923  1.187947
      ESP Fit Center  424 is at   2.266852 -1.168747  1.187947
      ESP Fit Center  425 is at   2.614054 -0.739614  0.840008
      ESP Fit Center  426 is at   2.549416 -0.310768  0.840008
      ESP Fit Center  427 is at   0.431670 -1.999614  0.840008
      ESP Fit Center  428 is at   0.835381 -2.158059  0.840008
      ESP Fit Center  429 is at   1.267858 -2.190468  0.840008
      ESP Fit Center  430 is at   1.690674 -2.093963  0.840008
      ESP Fit Center  431 is at   2.066261 -1.877118  0.840008
      ESP Fit Center  432 is at   2.361245 -1.559201  0.840008
      ESP Fit Center  433 is at   2.549416 -1.168460  0.840008
      ESP Fit Center  434 is at   2.781887 -0.739614  0.434824
      ESP Fit Center  435 is at   2.726593 -0.319614  0.434824
      ESP Fit Center  436 is at   0.347754 -2.144961  0.434824
      ESP Fit Center  437 is at   0.739132 -2.307075  0.434824
      ESP Fit Center  438 is at   1.159132 -2.362369  0.434824
      ESP Fit Center  439 is at   1.579132 -2.307075  0.434824
      ESP Fit Center  440 is at   1.970509 -2.144961  0.434824
      ESP Fit Center  441 is at   2.306593 -1.887075  0.434824
      ESP Fit Center  442 is at   2.564479 -1.550992  0.434824
      ESP Fit Center  443 is at   2.726593 -1.159614  0.434824
      ESP Fit Center  444 is at   2.839132 -0.739614  0.000008
      ESP Fit Center  445 is at   2.786351 -0.321815  0.000008
      ESP Fit Center  446 is at   0.088259 -2.034076  0.000008
      ESP Fit Center  447 is at   0.443822 -2.259723  0.000008
      ESP Fit Center  448 is at   0.844331 -2.389856  0.000008
      ESP Fit Center  449 is at   1.264620 -2.416299  0.000008
      ESP Fit Center  450 is at   1.678280 -2.337389  0.000008
      ESP Fit Center  451 is at   2.059321 -2.158085  0.000008
      ESP Fit Center  452 is at   2.383799 -1.889653  0.000008
      ESP Fit Center  453 is at   2.631327 -1.548960  0.000008
      ESP Fit Center  454 is at   2.786351 -1.157413  0.000008
      ESP Fit Center  455 is at   2.781887 -0.739614 -0.434808
      ESP Fit Center  456 is at   2.726593 -0.319614 -0.434808
      ESP Fit Center  457 is at   0.347754 -2.144961 -0.434808
      ESP Fit Center  458 is at   0.739132 -2.307075 -0.434808
      ESP Fit Center  459 is at   1.159132 -2.362369 -0.434808
      ESP Fit Center  460 is at   1.579132 -2.307075 -0.434808
      ESP Fit Center  461 is at   1.970509 -2.144961 -0.434808
      ESP Fit Center  462 is at   2.306593 -1.887075 -0.434808
      ESP Fit Center  463 is at   2.564479 -1.550992 -0.434808
      ESP Fit Center  464 is at   2.726593 -1.159614 -0.434808
      ESP Fit Center  465 is at   2.614054 -0.739614 -0.839992
      ESP Fit Center  466 is at   2.549416 -0.310768 -0.839992
      ESP Fit Center  467 is at   0.431670 -1.999614 -0.839992
      ESP Fit Center  468 is at   0.835381 -2.158059 -0.839992
      ESP Fit Center  469 is at   1.267858 -2.190468 -0.839992
      ESP Fit Center  470 is at   1.690674 -2.093963 -0.839992
      ESP Fit Center  471 is at   2.066261 -1.877118 -0.839992
      ESP Fit Center  472 is at   2.361245 -1.559201 -0.839992
      ESP Fit Center  473 is at   2.549416 -1.168460 -0.839992
      ESP Fit Center  474 is at   2.347071 -0.739614 -1.187932
      ESP Fit Center  475 is at   2.266852 -0.310481 -1.187932
      ESP Fit Center  476 is at   0.443238 -1.687610 -1.187932
      ESP Fit Center  477 is at   0.834036 -1.882204 -1.187932
      ESP Fit Center  478 is at   1.268741 -1.922486 -1.187932
      ESP Fit Center  479 is at   1.688642 -1.803014 -1.187932
      ESP Fit Center  480 is at   2.037029 -1.539923 -1.187932
      ESP Fit Center  481 is at   2.266852 -1.168747 -1.187932
      ESP Fit Center  482 is at   1.999132 -0.739614 -1.454915
      ESP Fit Center  483 is at   0.739132 -1.467075 -1.454915
      ESP Fit Center  484 is at   1.159132 -1.579614 -1.454915
      ESP Fit Center  485 is at   1.579132 -1.467075 -1.454915
      ESP Fit Center  486 is at   1.886593 -1.159614 -1.454915
      ESP Fit Center  487 is at   1.593948 -0.739614 -1.622748
      ESP Fit Center  488 is at   0.941724 -1.116176 -1.622748
      ESP Fit Center  489 is at   1.376540 -1.116176 -1.622748
      ESP Fit Center  490 is at   0.035908  0.391305  2.255250
      ESP Fit Center  491 is at  -0.264543  0.691756  2.255250
      ESP Fit Center  492 is at  -0.674967  0.801729  2.255250
      ESP Fit Center  493 is at  -0.074967  1.020111  2.078449
      ESP Fit Center  494 is at  -0.466589  1.162650  2.078449
      ESP Fit Center  495 is at  -0.883345  1.162650  2.078449
      ESP Fit Center  496 is at  -1.274967  1.020111  2.078449
      ESP Fit Center  497 is at   0.034771  1.350612  1.838495
      ESP Fit Center  498 is at  -0.361098  1.491304  1.838495
      ESP Fit Center  499 is at  -0.780244  1.519974  1.838495
      ESP Fit Center  500 is at  -1.871649  0.954454  1.838495
      ESP Fit Center  501 is at   0.053228  1.669027  1.542678
      ESP Fit Center  502 is at  -0.355714  1.791456  1.542678
      ESP Fit Center  503 is at  -2.402598  0.609687  1.542678
      ESP Fit Center  504 is at   0.046893  1.929962  1.199988
      ESP Fit Center  505 is at  -2.658108  0.603095  1.199988
      ESP Fit Center  506 is at  -2.742764  0.191155  1.199988
      ESP Fit Center  507 is at  -2.838875  0.616261  0.820836
      ESP Fit Center  508 is at  -2.920017  0.195257  0.820836
      ESP Fit Center  509 is at  -2.920017 -0.233496  0.820836
      ESP Fit Center  510 is at  -3.028991  0.192747  0.416744
      ESP Fit Center  511 is at  -3.028991 -0.230985  0.416744
      ESP Fit Center  512 is at  -2.953331 -0.647908  0.416744
      ESP Fit Center  513 is at  -2.804442 -1.044620  0.416744
      ESP Fit Center  514 is at  -0.357702 -2.361267  0.416744
      ESP Fit Center  515 is at   0.055406 -2.266978  0.416744
      ESP Fit Center  516 is at  -3.038506  0.397636 -0.000012
      ESP Fit Center  517 is at  -3.074967 -0.019119 -0.000012
      ESP Fit Center  518 is at  -3.038506 -0.435875 -0.000012
      ESP Fit Center  519 is at  -2.930229 -0.839968 -0.000012
      ESP Fit Center  520 is at  -2.753428 -1.219119 -0.000012
      ESP Fit Center  521 is at  -2.513474 -1.561810 -0.000012
      ESP Fit Center  522 is at  -2.217657 -1.857626 -0.000012
      ESP Fit Center  523 is at  -1.874967 -2.097580 -0.000012
      ESP Fit Center  524 is at  -1.495815 -2.274382 -0.000012
      ESP Fit Center  525 is at  -1.091723 -2.382658 -0.000012
      ESP Fit Center  526 is at  -0.674967 -2.419119 -0.000012
      ESP Fit Center  527 is at  -0.258212 -2.382658 -0.000012
      ESP Fit Center  528 is at  -3.028991  0.192747 -0.416768
      ESP Fit Center  529 is at  -3.028991 -0.230985 -0.416768
      ESP Fit Center  530 is at  -2.953331 -0.647908 -0.416768
      ESP Fit Center  531 is at  -2.804442 -1.044620 -0.416768
      ESP Fit Center  532 is at  -0.357702 -2.361267 -0.416768
      ESP Fit Center  533 is at   0.055406 -2.266978 -0.416768
      ESP Fit Center  534 is at  -2.838875  0.616261 -0.820860
      ESP Fit Center  535 is at  -2.920017  0.195257 -0.820860
      ESP Fit Center  536 is at  -2.920017 -0.233496 -0.820860
      ESP Fit Center  537 is at   0.046893  1.929962 -1.200012
      ESP Fit Center  538 is at  -2.658108  0.603095 -1.200012
      ESP Fit Center  539 is at  -2.742764  0.191155 -1.200012
      ESP Fit Center  540 is at   0.053228  1.669027 -1.542702
      ESP Fit Center  541 is at  -0.355714  1.791456 -1.542702
      ESP Fit Center  542 is at  -2.402598  0.609687 -1.542702
      ESP Fit Center  543 is at   0.034771  1.350612 -1.838519
      ESP Fit Center  544 is at  -0.361098  1.491304 -1.838519
      ESP Fit Center  545 is at  -0.780244  1.519974 -1.838519
      ESP Fit Center  546 is at  -1.871649  0.954454 -1.838519
      ESP Fit Center  547 is at  -0.074967  1.020111 -2.078473
      ESP Fit Center  548 is at  -0.466589  1.162650 -2.078473
      ESP Fit Center  549 is at  -0.883345  1.162650 -2.078473
      ESP Fit Center  550 is at  -1.274967  1.020111 -2.078473
      ESP Fit Center  551 is at   0.035908  0.391305 -2.255274
      ESP Fit Center  552 is at  -0.264543  0.691756 -2.255274
      ESP Fit Center  553 is at  -0.674967  0.801729 -2.255274
      ESP Fit Center  554 is at  -0.716756  1.669209  1.729863
      ESP Fit Center  555 is at  -1.133285  1.780817  1.729863
      ESP Fit Center  556 is at  -1.549813  1.669209  1.729863
      ESP Fit Center  557 is at  -1.854733  1.364289  1.729863
      ESP Fit Center  558 is at  -0.534735  1.984480  1.501119
      ESP Fit Center  559 is at  -0.925411  2.126674  1.501119
      ESP Fit Center  560 is at  -1.341159  2.126674  1.501119
      ESP Fit Center  561 is at  -1.731835  1.984480  1.501119
      ESP Fit Center  562 is at  -2.050317  1.717242  1.501119
      ESP Fit Center  563 is at  -2.258191  1.357193  1.501119
      ESP Fit Center  564 is at  -2.330385  0.947761  1.501119
      ESP Fit Center  565 is at  -0.150263  2.082229  1.197103
      ESP Fit Center  566 is at  -0.509699  2.313224  1.197103
      ESP Fit Center  567 is at  -0.919654  2.433598  1.197103
      ESP Fit Center  568 is at  -1.346916  2.433598  1.197103
      ESP Fit Center  569 is at  -1.756871  2.313224  1.197103
      ESP Fit Center  570 is at  -2.116307  2.082229  1.197103
      ESP Fit Center  571 is at  -2.396104  1.759326  1.197103
      ESP Fit Center  572 is at  -2.573596  1.370674  1.197103
      ESP Fit Center  573 is at  -2.634401  0.947761  1.197103
      ESP Fit Center  574 is at  -0.150612  2.371408  0.833060
      ESP Fit Center  575 is at  -0.519868  2.565208  0.833060
      ESP Fit Center  576 is at  -0.924773  2.665008  0.833060
      ESP Fit Center  577 is at  -1.341796  2.665008  0.833060
      ESP Fit Center  578 is at  -1.746702  2.565208  0.833060
      ESP Fit Center  579 is at  -2.115957  2.371408  0.833060
      ESP Fit Center  580 is at  -2.428104  2.094870  0.833060
      ESP Fit Center  581 is at  -2.665000  1.751667  0.833060
      ESP Fit Center  582 is at  -2.812878  1.361743  0.833060
      ESP Fit Center  583 is at  -2.863145  0.947761  0.833060
      ESP Fit Center  584 is at   0.033802  2.411241  0.427243
      ESP Fit Center  585 is at  -0.321115  2.634250  0.427243
      ESP Fit Center  586 is at  -0.716756  2.772691  0.427243
      ESP Fit Center  587 is at  -1.133285  2.819622  0.427243
      ESP Fit Center  588 is at  -1.549813  2.772691  0.427243
      ESP Fit Center  589 is at  -1.945455  2.634250  0.427243
      ESP Fit Center  590 is at  -2.300371  2.411241  0.427243
      ESP Fit Center  591 is at  -2.596765  2.114847  0.427243
      ESP Fit Center  592 is at  -2.819774  1.759931  0.427243
      ESP Fit Center  593 is at  -2.958215  1.364289  0.427243
      ESP Fit Center  594 is at  -3.005146  0.947761  0.427243
      ESP Fit Center  595 is at   0.109697  2.411112  0.000003
      ESP Fit Center  596 is at  -0.233941  2.644104  0.000003
      ESP Fit Center  597 is at  -0.619630  2.797777  0.000003
      ESP Fit Center  598 is at  -1.029338  2.864945  0.000003
      ESP Fit Center  599 is at  -1.443906  2.842468  0.000003
      ESP Fit Center  600 is at  -1.843950  2.731396  0.000003
      ESP Fit Center  601 is at  -2.210764  2.536924  0.000003
      ESP Fit Center  602 is at  -2.527196  2.268144  0.000003
      ESP Fit Center  603 is at  -2.778451  1.937624  0.000003
      ESP Fit Center  604 is at  -2.952779  1.560820  0.000003
      ESP Fit Center  605 is at  -3.042030  1.155349  0.000003
      ESP Fit Center  606 is at  -3.042030  0.740172  0.000003
      ESP Fit Center  607 is at   0.033802  2.411241 -0.427237
      ESP Fit Center  608 is at  -0.321115  2.634250 -0.427237
      ESP Fit Center  609 is at  -0.716756  2.772691 -0.427237
      ESP Fit Center  610 is at  -1.133285  2.819622 -0.427237
      ESP Fit Center  611 is at  -1.549813  2.772691 -0.427237
      ESP Fit Center  612 is at  -1.945455  2.634250 -0.427237
      ESP Fit Center  613 is at  -2.300371  2.411241 -0.427237
      ESP Fit Center  614 is at  -2.596765  2.114847 -0.427237
      ESP Fit Center  615 is at  -2.819774  1.759931 -0.427237
      ESP Fit Center  616 is at  -2.958215  1.364289 -0.427237
      ESP Fit Center  617 is at  -3.005146  0.947761 -0.427237
      ESP Fit Center  618 is at  -0.150612  2.371408 -0.833054
      ESP Fit Center  619 is at  -0.519868  2.565208 -0.833054
      ESP Fit Center  620 is at  -0.924773  2.665008 -0.833054
      ESP Fit Center  621 is at  -1.341796  2.665008 -0.833054
      ESP Fit Center  622 is at  -1.746702  2.565208 -0.833054
      ESP Fit Center  623 is at  -2.115957  2.371408 -0.833054
      ESP Fit Center  624 is at  -2.428104  2.094870 -0.833054
      ESP Fit Center  625 is at  -2.665000  1.751667 -0.833054
      ESP Fit Center  626 is at  -2.812878  1.361743 -0.833054
      ESP Fit Center  627 is at  -2.863145  0.947761 -0.833054
      ESP Fit Center  628 is at  -0.150263  2.082229 -1.197098
      ESP Fit Center  629 is at  -0.509699  2.313224 -1.197098
      ESP Fit Center  630 is at  -0.919654  2.433598 -1.197098
      ESP Fit Center  631 is at  -1.346916  2.433598 -1.197098
      ESP Fit Center  632 is at  -1.756871  2.313224 -1.197098
      ESP Fit Center  633 is at  -2.116307  2.082229 -1.197098
      ESP Fit Center  634 is at  -2.396104  1.759326 -1.197098
      ESP Fit Center  635 is at  -2.573596  1.370674 -1.197098
      ESP Fit Center  636 is at  -2.634401  0.947761 -1.197098
      ESP Fit Center  637 is at  -0.534735  1.984480 -1.501114
      ESP Fit Center  638 is at  -0.925411  2.126674 -1.501114
      ESP Fit Center  639 is at  -1.341159  2.126674 -1.501114
      ESP Fit Center  640 is at  -1.731835  1.984480 -1.501114
      ESP Fit Center  641 is at  -2.050317  1.717242 -1.501114
      ESP Fit Center  642 is at  -2.258191  1.357193 -1.501114
      ESP Fit Center  643 is at  -2.330385  0.947761 -1.501114
      ESP Fit Center  644 is at  -0.716756  1.669209 -1.729857
      ESP Fit Center  645 is at  -1.133285  1.780817 -1.729857
      ESP Fit Center  646 is at  -1.549813  1.669209 -1.729857
      ESP Fit Center  647 is at  -1.854733  1.364289 -1.729857
      ESP Fit Center  648 is at  -0.978004 -0.557453  2.793699
      ESP Fit Center  649 is at  -0.550764 -0.557453  2.745561
      ESP Fit Center  650 is at  -0.764384 -0.187452  2.745561
      ESP Fit Center  651 is at  -1.191624 -0.187452  2.745561
      ESP Fit Center  652 is at  -1.405245 -0.557453  2.745561
      ESP Fit Center  653 is at  -1.191624 -0.927454  2.745561
      ESP Fit Center  654 is at  -0.764384 -0.927454  2.745561
      ESP Fit Center  655 is at  -0.144948 -0.557453  2.603559
      ESP Fit Center  656 is at  -0.256556 -0.140925  2.603559
      ESP Fit Center  657 is at  -0.561476  0.163995  2.603559
      ESP Fit Center  658 is at  -0.978004  0.275604  2.603559
      ESP Fit Center  659 is at  -1.394533  0.163995  2.603559
      ESP Fit Center  660 is at  -1.699453 -0.140925  2.603559
      ESP Fit Center  661 is at  -1.811061 -0.557453  2.603559
      ESP Fit Center  662 is at  -1.699453 -0.973981  2.603559
      ESP Fit Center  663 is at  -1.394533 -1.278901  2.603559
      ESP Fit Center  664 is at  -0.978004 -1.390510  2.603559
      ESP Fit Center  665 is at  -0.561476 -1.278901  2.603559
      ESP Fit Center  666 is at  -0.256556 -0.973981  2.603559
      ESP Fit Center  667 is at   0.219096 -0.557453  2.374816
      ESP Fit Center  668 is at   0.146902 -0.148021  2.374816
      ESP Fit Center  669 is at  -0.060972  0.212028  2.374816
      ESP Fit Center  670 is at  -0.379454  0.479266  2.374816
      ESP Fit Center  671 is at  -0.770130  0.621461  2.374816
      ESP Fit Center  672 is at  -1.185879  0.621461  2.374816
      ESP Fit Center  673 is at  -1.576555  0.479266  2.374816
      ESP Fit Center  674 is at  -1.895036  0.212028  2.374816
      ESP Fit Center  675 is at  -2.102911 -0.148021  2.374816
      ESP Fit Center  676 is at  -2.175105 -0.557453  2.374816
      ESP Fit Center  677 is at  -2.102911 -0.966885  2.374816
      ESP Fit Center  678 is at  -1.895036 -1.326934  2.374816
      ESP Fit Center  679 is at  -1.576555 -1.594172  2.374816
      ESP Fit Center  680 is at  -1.185879 -1.736367  2.374816
      ESP Fit Center  681 is at  -0.770130 -1.736367  2.374816
      ESP Fit Center  682 is at  -0.379454 -1.594172  2.374816
      ESP Fit Center  683 is at  -0.060972 -1.326934  2.374816
      ESP Fit Center  684 is at   0.146902 -0.966885  2.374816
      ESP Fit Center  685 is at  -1.601591  0.808011  2.070800
      ESP Fit Center  686 is at  -1.961027  0.577015  2.070800
      ESP Fit Center  687 is at  -2.240824  0.254112  2.070800
      ESP Fit Center  688 is at  -2.418315 -0.134540  2.070800
      ESP Fit Center  689 is at  -2.479121 -0.557453  2.070800
      ESP Fit Center  690 is at  -2.418315 -0.980366  2.070800
      ESP Fit Center  691 is at  -2.240824 -1.369018  2.070800
      ESP Fit Center  692 is at  -1.961027 -1.691921  2.070800
      ESP Fit Center  693 is at  -1.601591 -1.922917  2.070800
      ESP Fit Center  694 is at  -1.191635 -2.043290  2.070800
      ESP Fit Center  695 is at  -0.764373 -2.043290  2.070800
      ESP Fit Center  696 is at  -0.354418 -1.922917  2.070800
      ESP Fit Center  697 is at   0.005018 -1.691921  2.070800
      ESP Fit Center  698 is at   0.284815 -1.369018  2.070800
      ESP Fit Center  699 is at   0.462306 -0.980366  2.070800
      ESP Fit Center  700 is at  -2.272823  0.589656  1.706756
      ESP Fit Center  701 is at  -2.509719  0.246453  1.706756
      ESP Fit Center  702 is at  -2.657598 -0.143470  1.706756
      ESP Fit Center  703 is at  -2.707865 -0.557453  1.706756
      ESP Fit Center  704 is at  -2.657598 -0.971436  1.706756
      ESP Fit Center  705 is at  -2.509719 -1.361359  1.706756
      ESP Fit Center  706 is at  -2.272823 -1.704563  1.706756
      ESP Fit Center  707 is at  -1.960677 -1.981100  1.706756
      ESP Fit Center  708 is at  -1.591421 -2.174900  1.706756
      ESP Fit Center  709 is at  -1.186516 -2.274701  1.706756
      ESP Fit Center  710 is at  -0.769493 -2.274701  1.706756
      ESP Fit Center  711 is at  -0.364587 -2.174900  1.706756
      ESP Fit Center  712 is at   0.004668 -1.981100  1.706756
      ESP Fit Center  713 is at   0.316815 -1.704563  1.706756
      ESP Fit Center  714 is at  -2.802934 -0.140925  1.300939
      ESP Fit Center  715 is at  -2.849866 -0.557453  1.300939
      ESP Fit Center  716 is at  -2.802934 -0.973981  1.300939
      ESP Fit Center  717 is at  -2.664493 -1.369623  1.300939
      ESP Fit Center  718 is at  -2.441485 -1.724540  1.300939
      ESP Fit Center  719 is at  -2.145091 -2.020933  1.300939
      ESP Fit Center  720 is at  -1.790175 -2.243942  1.300939
      ESP Fit Center  721 is at  -1.394533 -2.382383  1.300939
      ESP Fit Center  722 is at  -0.978004 -2.429315  1.300939
      ESP Fit Center  723 is at  -0.561476 -2.382383  1.300939
      ESP Fit Center  724 is at  -0.165834 -2.243942  1.300939
      ESP Fit Center  725 is at   0.189082 -2.020933  1.300939
      ESP Fit Center  726 is at  -2.886749 -0.349865  0.873699
      ESP Fit Center  727 is at  -2.886749 -0.765042  0.873699
      ESP Fit Center  728 is at  -2.797498 -1.170512  0.873699
      ESP Fit Center  729 is at  -2.623170 -1.547316  0.873699
      ESP Fit Center  730 is at  -2.371916 -1.877836  0.873699
      ESP Fit Center  731 is at  -2.055483 -2.146616  0.873699
      ESP Fit Center  732 is at  -1.688670 -2.341088  0.873699
      ESP Fit Center  733 is at  -1.288626 -2.452160  0.873699
      ESP Fit Center  734 is at  -0.874058 -2.474637  0.873699
      ESP Fit Center  735 is at  -0.464350 -2.407469  0.873699
      ESP Fit Center  736 is at  -0.078660 -2.253796  0.873699
      ESP Fit Center  737 is at  -2.664493 -1.369623  0.446459
      ESP Fit Center  738 is at  -2.441485 -1.724540  0.446459
      ESP Fit Center  739 is at  -2.145091 -2.020933  0.446459
      ESP Fit Center  740 is at  -1.790175 -2.243942  0.446459
      ESP Fit Center  741 is at  -1.394533 -2.382383  0.446459
      ESP Fit Center  742 is at  -0.978004 -2.429315  0.446459
      ESP Fit Center  743 is at  -0.561476 -2.382383  0.446459
      ESP Fit Center  744 is at  -2.664467 -1.369652 -0.446414
      ESP Fit Center  745 is at  -2.441459 -1.724568 -0.446414
      ESP Fit Center  746 is at  -2.145065 -2.020962 -0.446414
      ESP Fit Center  747 is at  -1.790149 -2.243970 -0.446414
      ESP Fit Center  748 is at  -1.394507 -2.382411 -0.446414
      ESP Fit Center  749 is at  -0.977978 -2.429343 -0.446414
      ESP Fit Center  750 is at  -0.561450 -2.382411 -0.446414
      ESP Fit Center  751 is at  -2.886723 -0.349893 -0.873654
      ESP Fit Center  752 is at  -2.886723 -0.765070 -0.873654
      ESP Fit Center  753 is at  -2.797472 -1.170540 -0.873654
      ESP Fit Center  754 is at  -2.623144 -1.547345 -0.873654
      ESP Fit Center  755 is at  -2.371890 -1.877864 -0.873654
      ESP Fit Center  756 is at  -2.055458 -2.146644 -0.873654
      ESP Fit Center  757 is at  -1.688644 -2.341117 -0.873654
      ESP Fit Center  758 is at  -1.288600 -2.452188 -0.873654
      ESP Fit Center  759 is at  -0.874032 -2.474666 -0.873654
      ESP Fit Center  760 is at  -0.464324 -2.407497 -0.873654
      ESP Fit Center  761 is at  -0.078634 -2.253825 -0.873654
      ESP Fit Center  762 is at  -2.802908 -0.140953 -1.300894
      ESP Fit Center  763 is at  -2.849840 -0.557481 -1.300894
      ESP Fit Center  764 is at  -2.802908 -0.974010 -1.300894
      ESP Fit Center  765 is at  -2.664467 -1.369652 -1.300894
      ESP Fit Center  766 is at  -2.441459 -1.724568 -1.300894
      ESP Fit Center  767 is at  -2.145065 -2.020962 -1.300894
      ESP Fit Center  768 is at  -1.790149 -2.243970 -1.300894
      ESP Fit Center  769 is at  -1.394507 -2.382411 -1.300894
      ESP Fit Center  770 is at  -0.977978 -2.429343 -1.300894
      ESP Fit Center  771 is at  -0.561450 -2.382411 -1.300894
      ESP Fit Center  772 is at  -0.165808 -2.243970 -1.300894
      ESP Fit Center  773 is at   0.189108 -2.020962 -1.300894
      ESP Fit Center  774 is at  -2.272797  0.589628 -1.706711
      ESP Fit Center  775 is at  -2.509694  0.246425 -1.706711
      ESP Fit Center  776 is at  -2.657572 -0.143499 -1.706711
      ESP Fit Center  777 is at  -2.707839 -0.557481 -1.706711
      ESP Fit Center  778 is at  -2.657572 -0.971464 -1.706711
      ESP Fit Center  779 is at  -2.509694 -1.361388 -1.706711
      ESP Fit Center  780 is at  -2.272797 -1.704591 -1.706711
      ESP Fit Center  781 is at  -1.960651 -1.981128 -1.706711
      ESP Fit Center  782 is at  -1.591395 -2.174929 -1.706711
      ESP Fit Center  783 is at  -1.186490 -2.274729 -1.706711
      ESP Fit Center  784 is at  -0.769467 -2.274729 -1.706711
      ESP Fit Center  785 is at  -0.364561 -2.174929 -1.706711
      ESP Fit Center  786 is at   0.004694 -1.981128 -1.706711
      ESP Fit Center  787 is at   0.316841 -1.704591 -1.706711
      ESP Fit Center  788 is at  -1.601565  0.807982 -2.070755
      ESP Fit Center  789 is at  -1.961001  0.576987 -2.070755
      ESP Fit Center  790 is at  -2.240798  0.254083 -2.070755
      ESP Fit Center  791 is at  -2.418289 -0.134568 -2.070755
      ESP Fit Center  792 is at  -2.479095 -0.557481 -2.070755
      ESP Fit Center  793 is at  -2.418289 -0.980395 -2.070755
      ESP Fit Center  794 is at  -2.240798 -1.369046 -2.070755
      ESP Fit Center  795 is at  -1.961001 -1.691949 -2.070755
      ESP Fit Center  796 is at  -1.601565 -1.922945 -2.070755
      ESP Fit Center  797 is at  -1.191610 -2.043319 -2.070755
      ESP Fit Center  798 is at  -0.764347 -2.043319 -2.070755
      ESP Fit Center  799 is at  -0.354392 -1.922945 -2.070755
      ESP Fit Center  800 is at   0.005044 -1.691949 -2.070755
      ESP Fit Center  801 is at   0.284841 -1.369046 -2.070755
      ESP Fit Center  802 is at   0.462332 -0.980395 -2.070755
      ESP Fit Center  803 is at   0.219122 -0.557481 -2.374771
      ESP Fit Center  804 is at   0.146928 -0.148049 -2.374771
      ESP Fit Center  805 is at  -0.060946  0.212000 -2.374771
      ESP Fit Center  806 is at  -0.379428  0.479238 -2.374771
      ESP Fit Center  807 is at  -0.770104  0.621432 -2.374771
      ESP Fit Center  808 is at  -1.185853  0.621432 -2.374771
      ESP Fit Center  809 is at  -1.576529  0.479238 -2.374771
      ESP Fit Center  810 is at  -1.895010  0.212000 -2.374771
      ESP Fit Center  811 is at  -2.102885 -0.148049 -2.374771
      ESP Fit Center  812 is at  -2.175079 -0.557481 -2.374771
      ESP Fit Center  813 is at  -2.102885 -0.966914 -2.374771
      ESP Fit Center  814 is at  -1.895010 -1.326963 -2.374771
      ESP Fit Center  815 is at  -1.576529 -1.594201 -2.374771
      ESP Fit Center  816 is at  -1.185853 -1.736395 -2.374771
      ESP Fit Center  817 is at  -0.770104 -1.736395 -2.374771
      ESP Fit Center  818 is at  -0.379428 -1.594201 -2.374771
      ESP Fit Center  819 is at  -0.060946 -1.326963 -2.374771
      ESP Fit Center  820 is at   0.146928 -0.966914 -2.374771
      ESP Fit Center  821 is at  -0.144922 -0.557481 -2.603514
      ESP Fit Center  822 is at  -0.256530 -0.140953 -2.603514
      ESP Fit Center  823 is at  -0.561450  0.163967 -2.603514
      ESP Fit Center  824 is at  -0.977978  0.275575 -2.603514
      ESP Fit Center  825 is at  -1.394507  0.163967 -2.603514
      ESP Fit Center  826 is at  -1.699427 -0.140953 -2.603514
      ESP Fit Center  827 is at  -1.811035 -0.557481 -2.603514
      ESP Fit Center  828 is at  -1.699427 -0.974010 -2.603514
      ESP Fit Center  829 is at  -1.394507 -1.278930 -2.603514
      ESP Fit Center  830 is at  -0.977978 -1.390538 -2.603514
      ESP Fit Center  831 is at  -0.561450 -1.278930 -2.603514
      ESP Fit Center  832 is at  -0.256530 -0.974010 -2.603514
      ESP Fit Center  833 is at  -0.550738 -0.557481 -2.745516
      ESP Fit Center  834 is at  -0.764358 -0.187481 -2.745516
      ESP Fit Center  835 is at  -1.191598 -0.187481 -2.745516
      ESP Fit Center  836 is at  -1.405219 -0.557481 -2.745516
      ESP Fit Center  837 is at  -1.191598 -0.927482 -2.745516
      ESP Fit Center  838 is at  -0.764358 -0.927482 -2.745516
      ESP Fit Center  839 is at  -0.977978 -0.557481 -2.793654
      ESP Fit Center  840 is at   0.747492  0.127688  2.240002
      ESP Fit Center  841 is at   1.159091  0.127688  2.201862
      ESP Fit Center  842 is at   0.953292  0.484143  2.201862
      ESP Fit Center  843 is at   0.541693  0.484143  2.201862
      ESP Fit Center  844 is at   0.335893  0.127688  2.201862
      ESP Fit Center  845 is at   0.541693 -0.228767  2.201862
      ESP Fit Center  846 is at   0.953292 -0.228767  2.201862
      ESP Fit Center  847 is at   1.556674  0.127688  2.088740
      ESP Fit Center  848 is at   1.448264  0.532279  2.088740
      ESP Fit Center  849 is at   1.152083  0.828460  2.088740
      ESP Fit Center  850 is at   0.747492  0.936869  2.088740
      ESP Fit Center  851 is at   0.342902  0.828460  2.088740
      ESP Fit Center  852 is at   0.747492 -0.681493  2.088740
      ESP Fit Center  853 is at   1.152083 -0.573084  2.088740
      ESP Fit Center  854 is at   1.448264 -0.276903  2.088740
      ESP Fit Center  855 is at   1.926700  0.127688  1.904488
      ESP Fit Center  856 is at   1.847071  0.553667  1.904488
      ESP Fit Center  857 is at   1.618938  0.922115  1.904488
      ESP Fit Center  858 is at   1.273111  1.183272  1.904488
      ESP Fit Center  859 is at   0.856296  1.301866  1.904488
      ESP Fit Center  860 is at   0.424787  1.261881  1.904488
      ESP Fit Center  861 is at   0.856296 -1.046490  1.904488
      ESP Fit Center  862 is at   1.618938 -0.666739  1.904488
      ESP Fit Center  863 is at   1.847071 -0.298291  1.904488
      ESP Fit Center  864 is at   2.256571  0.127688  1.655382
      ESP Fit Center  865 is at   2.195442  0.552844  1.655382
      ESP Fit Center  866 is at   2.017010  0.943557  1.655382
      ESP Fit Center  867 is at   1.735728  1.268173  1.655382
      ESP Fit Center  868 is at   1.374386  1.500394  1.655382
      ESP Fit Center  869 is at   0.962257  1.621406  1.655382
      ESP Fit Center  870 is at   0.532728  1.621406  1.655382
      ESP Fit Center  871 is at   2.195442 -0.297468  1.655382
      ESP Fit Center  872 is at   2.535051  0.127688  1.349904
      ESP Fit Center  873 is at   2.486867  0.539927  1.349904
      ESP Fit Center  874 is at   2.344913  0.929943  1.349904
      ESP Fit Center  875 is at   2.116842  1.276709  1.349904
      ESP Fit Center  876 is at   1.814948  1.561530  1.349904
      ESP Fit Center  877 is at   1.455508  1.769053  1.349904
      ESP Fit Center  878 is at   1.057899  1.888090  1.349904
      ESP Fit Center  879 is at   0.643555  1.912222  1.349904
      ESP Fit Center  880 is at   0.234815  1.840150  1.349904
      ESP Fit Center  881 is at   2.486867 -0.284551  1.349904
      ESP Fit Center  882 is at   2.752658  0.127688  0.998456
      ESP Fit Center  883 is at   2.708840  0.544585  0.998456
      ESP Fit Center  884 is at   2.579302  0.943262  0.998456
      ESP Fit Center  885 is at   2.369706  1.306295  0.998456
      ESP Fit Center  886 is at   2.089210  1.617817  0.998456
      ESP Fit Center  887 is at   1.750075  1.864213  0.998456
      ESP Fit Center  888 is at   1.367123  2.034714  0.998456
      ESP Fit Center  889 is at   0.957089  2.121869  0.998456
      ESP Fit Center  890 is at   0.537895  2.121869  0.998456
      ESP Fit Center  891 is at   0.127862  2.034714  0.998456
      ESP Fit Center  892 is at   2.901982  0.127688  0.613007
      ESP Fit Center  893 is at   2.860584  0.548008  0.613007
      ESP Fit Center  894 is at   2.737981  0.952175  0.613007
      ESP Fit Center  895 is at   2.538885  1.324658  0.613007
      ESP Fit Center  896 is at   2.270946  1.651142  0.613007
      ESP Fit Center  897 is at   1.944463  1.919081  0.613007
      ESP Fit Center  898 is at   1.571980  2.118177  0.613007
      ESP Fit Center  899 is at   1.167812  2.240780  0.613007
      ESP Fit Center  900 is at   0.747492  2.282177  0.613007
      ESP Fit Center  901 is at   0.327172  2.240780  0.613007
      ESP Fit Center  902 is at   2.977937  0.127688  0.206683
      ESP Fit Center  903 is at   2.937630  0.549802  0.206683
      ESP Fit Center  904 is at   2.818166  0.956661  0.206683
      ESP Fit Center  905 is at   2.623862  1.333557  0.206683
      ESP Fit Center  906 is at   2.361741  1.666871  0.206683
      ESP Fit Center  907 is at   2.041277  1.944555  0.206683
      ESP Fit Center  908 is at   1.674053  2.156572  0.206683
      ESP Fit Center  909 is at   1.273340  2.295260  0.206683
      ESP Fit Center  910 is at   0.853621  2.355606  0.206683
      ESP Fit Center  911 is at   0.430067  2.335430  0.206683
      ESP Fit Center  912 is at   2.977937  0.127688 -0.206679
      ESP Fit Center  913 is at   2.937630  0.549802 -0.206679
      ESP Fit Center  914 is at   2.818166  0.956661 -0.206679
      ESP Fit Center  915 is at   2.623862  1.333557 -0.206679
      ESP Fit Center  916 is at   2.361741  1.666871 -0.206679
      ESP Fit Center  917 is at   2.041277  1.944555 -0.206679
      ESP Fit Center  918 is at   1.674053  2.156572 -0.206679
      ESP Fit Center  919 is at   1.273340  2.295260 -0.206679
      ESP Fit Center  920 is at   0.853621  2.355606 -0.206679
      ESP Fit Center  921 is at   0.430067  2.335430 -0.206679
      ESP Fit Center  922 is at   2.901982  0.127688 -0.613003
      ESP Fit Center  923 is at   2.860584  0.548008 -0.613003
      ESP Fit Center  924 is at   2.737981  0.952175 -0.613003
      ESP Fit Center  925 is at   2.538885  1.324658 -0.613003
      ESP Fit Center  926 is at   2.270946  1.651142 -0.613003
      ESP Fit Center  927 is at   1.944463  1.919081 -0.613003
      ESP Fit Center  928 is at   1.571980  2.118177 -0.613003
      ESP Fit Center  929 is at   1.167812  2.240780 -0.613003
      ESP Fit Center  930 is at   0.747492  2.282177 -0.613003
      ESP Fit Center  931 is at   0.327172  2.240780 -0.613003
      ESP Fit Center  932 is at   2.752658  0.127688 -0.998452
      ESP Fit Center  933 is at   2.708840  0.544585 -0.998452
      ESP Fit Center  934 is at   2.579302  0.943262 -0.998452
      ESP Fit Center  935 is at   2.369706  1.306295 -0.998452
      ESP Fit Center  936 is at   2.089210  1.617817 -0.998452
      ESP Fit Center  937 is at   1.750075  1.864213 -0.998452
      ESP Fit Center  938 is at   1.367123  2.034714 -0.998452
      ESP Fit Center  939 is at   0.957089  2.121869 -0.998452
      ESP Fit Center  940 is at   0.537895  2.121869 -0.998452
[...]
 1896 Fit       0.005065
 1897 Fit       0.005642
 1898 Fit       0.006249
 1899 Fit       0.006882
 1900 Fit      -0.011954
 1901 Fit       0.004588
 1902 Fit       0.005356
 1903 Fit      -0.016181
 1904 Fit      -0.011740
 1905 Fit      -0.007904
 1906 Fit       0.002599
 1907 Fit       0.003648
 1908 Fit      -0.014927
 1909 Fit      -0.011092
 1910 Fit      -0.007625
 1911 Fit      -0.004674
 1912 Fit      -0.002258
 1913 Fit      -0.000321
 1914 Fit       0.001247
 1915 Fit       0.002584
 1916 Fit      -0.011946
 1917 Fit      -0.008642
 1918 Fit      -0.005557
 1919 Fit      -0.002916
 1920 Fit      -0.000737
 1921 Fit       0.001081
 1922 Fit      -0.011162
 1923 Fit      -0.009397
 1924 Fit      -0.006767
 1925 Fit      -0.004061
 1926 Fit      -0.001636
 1927 Fit      -0.007143
 1928 Fit      -0.006381
 1929 Fit      -0.004137
 1930 Fit      -0.005415
 1931 Fit      -0.002771
 1932 Fit      -0.000734
 1933 Fit       0.000828
 1934 Fit      -0.009567
 1935 Fit      -0.006047
 1936 Fit      -0.003308
 1937 Fit      -0.001185
 1938 Fit       0.000462
 1939 Fit       0.001758
 1940 Fit       0.002827
 1941 Fit      -0.009334
 1942 Fit      -0.005842
 1943 Fit      -0.003150
 1944 Fit      -0.001057
 1945 Fit       0.000578
 1946 Fit       0.001869
 1947 Fit       0.002917
 1948 Fit       0.003825
 1949 Fit      -0.013222
 1950 Fit      -0.008870
 1951 Fit      -0.005555
 1952 Fit      -0.002982
 1953 Fit      -0.000961
 1954 Fit       0.000636
 1955 Fit       0.001909
 1956 Fit       0.002940
 1957 Fit       0.003809
 1958 Fit       0.004599
 1959 Fit       0.005397
 1960 Fit      -0.015804
 1961 Fit      -0.010724
 1962 Fit      -0.006931
 1963 Fit      -0.004019
 1964 Fit      -0.001745
 1965 Fit       0.000049
 1966 Fit       0.001475
 1967 Fit       0.002618
 1968 Fit       0.003554
 1969 Fit       0.004356
 1970 Fit       0.005101
 1971 Fit       0.005874
 1972 Fit      -0.012630
 1973 Fit      -0.008424
 1974 Fit      -0.005216
 1975 Fit      -0.002714
 1976 Fit      -0.000737
 1977 Fit       0.000839
 1978 Fit       0.002102
 1979 Fit       0.003126
 1980 Fit       0.003976
 1981 Fit       0.004719
 1982 Fit       0.005424
 1983 Fit       0.006168
 1984 Fit      -0.013588
 1985 Fit      -0.009195
 1986 Fit      -0.005852
 1987 Fit      -0.003245
 1988 Fit      -0.001181
 1989 Fit       0.000466
 1990 Fit       0.001791
 1991 Fit       0.002863
 1992 Fit       0.003747
 1993 Fit       0.004503
 1994 Fit       0.005196
 1995 Fit       0.005894
 1996 Fit      -0.012630
 1997 Fit      -0.008424
 1998 Fit      -0.005216
 1999 Fit      -0.002714
 2000 Fit      -0.000737
 2001 Fit       0.000839
 2002 Fit       0.002102
 2003 Fit       0.003126
 2004 Fit       0.003976
 2005 Fit       0.004719
 2006 Fit       0.005424
 2007 Fit       0.006168
 2008 Fit      -0.015804
 2009 Fit      -0.010724
 2010 Fit      -0.006930
 2011 Fit      -0.004019
 2012 Fit      -0.001745
 2013 Fit       0.000049
 2014 Fit       0.001475
 2015 Fit       0.002618
 2016 Fit       0.003554
 2017 Fit       0.004356
 2018 Fit       0.005101
 2019 Fit       0.005874
 2020 Fit      -0.013222
 2021 Fit      -0.008870
 2022 Fit      -0.005555
 2023 Fit      -0.002982
 2024 Fit      -0.000961
 2025 Fit       0.000636
 2026 Fit       0.001909
 2027 Fit       0.002940
 2028 Fit       0.003809
 2029 Fit       0.004599
 2030 Fit       0.005397
 2031 Fit      -0.009334
 2032 Fit      -0.005842
 2033 Fit      -0.003149
 2034 Fit      -0.001057
 2035 Fit       0.000578
 2036 Fit       0.001869
 2037 Fit       0.002917
 2038 Fit       0.003825
 2039 Fit      -0.009567
 2040 Fit      -0.006047
 2041 Fit      -0.003308
 2042 Fit      -0.001185
 2043 Fit       0.000462
 2044 Fit       0.001758
 2045 Fit       0.002827
 2046 Fit      -0.005415
 2047 Fit      -0.002771
 2048 Fit      -0.000734
 2049 Fit       0.000828
 2050 Fit       0.002397
 2051 Fit       0.001298
 2052 Fit       0.000539
 2053 Fit       0.001795
 2054 Fit       0.003323
 2055 Fit       0.003941
 2056 Fit       0.003173
 2057 Fit      -0.000018
 2058 Fit      -0.001695
 2059 Fit      -0.001696
 2060 Fit      -0.000372
 2061 Fit       0.001360
 2062 Fit       0.002923
 2063 Fit       0.004110
 2064 Fit       0.004882
 2065 Fit       0.005220
 2066 Fit       0.005043
 2067 Fit       0.004150
 2068 Fit       0.002345
 2069 Fit      -0.001612
 2070 Fit      -0.004140
 2071 Fit      -0.005108
 2072 Fit      -0.004393
 2073 Fit      -0.002683
 2074 Fit      -0.000714
 2075 Fit       0.001104
 2076 Fit       0.002626
 2077 Fit       0.003844
 2078 Fit       0.004786
 2079 Fit       0.005488
 2080 Fit       0.005979
 2081 Fit       0.006270
 2082 Fit       0.006342
 2083 Fit       0.006107
 2084 Fit       0.005374
 2085 Fit       0.003865
 2086 Fit       0.001413
 2087 Fit      -0.003572
 2088 Fit      -0.000144
 2089 Fit       0.001603
 2090 Fit       0.003000
 2091 Fit       0.004114
 2092 Fit       0.005003
 2093 Fit       0.005709
 2094 Fit       0.006265
 2095 Fit       0.006699
 2096 Fit       0.007033
 2097 Fit       0.007278
 2098 Fit       0.007419
 2099 Fit       0.007387
 2100 Fit       0.007019
 2101 Fit       0.006014
 2102 Fit       0.003973
 2103 Fit       0.000649
 2104 Fit       0.002771
 2105 Fit       0.003921
 2106 Fit       0.004842
 2107 Fit       0.005588
 2108 Fit       0.006198
 2109 Fit       0.006700
 2110 Fit       0.007119
 2111 Fit       0.007482
 2112 Fit       0.007813
 2113 Fit       0.008133
 2114 Fit       0.008448
 2115 Fit       0.008728
 2116 Fit       0.008869
 2117 Fit       0.008622
 2118 Fit       0.007527
 2119 Fit       0.004928
 2120 Fit       0.004841
 2121 Fit       0.005557
 2122 Fit       0.006152
 2123 Fit       0.006651
 2124 Fit       0.007076
 2125 Fit       0.007448
 2126 Fit       0.007789
 2127 Fit       0.008127
 2128 Fit       0.008490
 2129 Fit       0.008909
 2130 Fit       0.009412
 2131 Fit       0.010012
 2132 Fit       0.010674
 2133 Fit       0.011263
 2134 Fit       0.011434
 2135 Fit       0.006238
 2136 Fit       0.006709
 2137 Fit       0.007113
 2138 Fit       0.007465
 2139 Fit       0.007785
 2140 Fit       0.008095
 2141 Fit       0.008425
 2142 Fit       0.008808
 2143 Fit       0.009288
 2144 Fit       0.009918
 2145 Fit       0.010757
 2146 Fit       0.011861
 2147 Fit       0.013254
 2148 Fit       0.014851
 2149 Fit       0.007314
 2150 Fit       0.007601
 2151 Fit       0.007861
 2152 Fit       0.008108
 2153 Fit       0.008366
 2154 Fit       0.008661
 2155 Fit       0.009029
 2156 Fit       0.009520
 2157 Fit       0.010197
 2158 Fit       0.011145
 2159 Fit       0.012477
 2160 Fit       0.014329
 2161 Fit       0.016858
 2162 Fit       0.008232
 2163 Fit       0.008392
 2164 Fit       0.008571
 2165 Fit       0.008792
 2166 Fit       0.009090
 2167 Fit       0.009509
 2168 Fit       0.010114
 2169 Fit       0.010996
 2170 Fit       0.012285
 2171 Fit       0.014165
 2172 Fit       0.009075
 2173 Fit       0.009308
 2174 Fit       0.009682
 2175 Fit       0.010272
 2176 Fit       0.009075
 2177 Fit       0.009308
 2178 Fit       0.009682
 2179 Fit       0.010272
 2180 Fit       0.008232
 2181 Fit       0.008392
 2182 Fit       0.008571
 2183 Fit       0.008792
 2184 Fit       0.009090
 2185 Fit       0.009509
 2186 Fit       0.010114
 2187 Fit       0.010996
 2188 Fit       0.012285
 2189 Fit       0.014165
 2190 Fit       0.007314
 2191 Fit       0.007601
 2192 Fit       0.007861
 2193 Fit       0.008108
 2194 Fit       0.008366
 2195 Fit       0.008661
 2196 Fit       0.009029
 2197 Fit       0.009520
 2198 Fit       0.010197
 2199 Fit       0.011145
 2200 Fit       0.012477
 2201 Fit       0.014329
 2202 Fit       0.016858
 2203 Fit       0.006238
 2204 Fit       0.006709
 2205 Fit       0.007113
 2206 Fit       0.007465
 2207 Fit       0.007785
 2208 Fit       0.008095
 2209 Fit       0.008425
 2210 Fit       0.008808
 2211 Fit       0.009288
 2212 Fit       0.009918
 2213 Fit       0.010757
 2214 Fit       0.011861
 2215 Fit       0.013254
 2216 Fit       0.014851
 2217 Fit       0.004841
 2218 Fit       0.005557
 2219 Fit       0.006152
 2220 Fit       0.006651
 2221 Fit       0.007076
 2222 Fit       0.007448
 2223 Fit       0.007789
 2224 Fit       0.008127
 2225 Fit       0.008490
 2226 Fit       0.008909
 2227 Fit       0.009412
 2228 Fit       0.010012
 2229 Fit       0.010674
 2230 Fit       0.011263
 2231 Fit       0.011434
 2232 Fit       0.002771
 2233 Fit       0.003921
 2234 Fit       0.004842
 2235 Fit       0.005588
 2236 Fit       0.006198
 2237 Fit       0.006700
 2238 Fit       0.007119
 2239 Fit       0.007482
 2240 Fit       0.007813
 2241 Fit       0.008133
 2242 Fit       0.008448
 2243 Fit       0.008728
 2244 Fit       0.008869
 2245 Fit       0.008622
 2246 Fit       0.007527
 2247 Fit       0.004928
 2248 Fit      -0.003572
 2249 Fit      -0.000144
 2250 Fit       0.001603
 2251 Fit       0.003000
 2252 Fit       0.004114
 2253 Fit       0.005003
 2254 Fit       0.005709
 2255 Fit       0.006265
 2256 Fit       0.006699
 2257 Fit       0.007033
 2258 Fit       0.007278
 2259 Fit       0.007419
 2260 Fit       0.007387
 2261 Fit       0.007019
 2262 Fit       0.006014
 2263 Fit       0.003973
 2264 Fit       0.000649
 2265 Fit      -0.001612
 2266 Fit      -0.004140
 2267 Fit      -0.005108
 2268 Fit      -0.004393
 2269 Fit      -0.002683
 2270 Fit      -0.000714
 2271 Fit       0.001104
 2272 Fit       0.002627
 2273 Fit       0.003844
 2274 Fit       0.004786
 2275 Fit       0.005488
 2276 Fit       0.005979
 2277 Fit       0.006270
 2278 Fit       0.006342
 2279 Fit       0.006107
 2280 Fit       0.005374
 2281 Fit       0.003865
 2282 Fit       0.001413
 2283 Fit      -0.000018
 2284 Fit      -0.001695
 2285 Fit      -0.001696
 2286 Fit      -0.000372
 2287 Fit       0.001360
 2288 Fit       0.002923
 2289 Fit       0.004110
 2290 Fit       0.004882
 2291 Fit       0.005220
 2292 Fit       0.005043
 2293 Fit       0.004150
 2294 Fit       0.002345
 2295 Fit       0.001298
 2296 Fit       0.000539
 2297 Fit       0.001795
 2298 Fit       0.003323
 2299 Fit       0.003941
 2300 Fit       0.003173
 2301 Fit       0.002397
 2302 Fit      -0.010070
 2303 Fit      -0.011393
 2304 Fit      -0.013431
 2305 Fit      -0.011686
 2306 Fit      -0.006326
 2307 Fit      -0.007764
 2308 Fit      -0.012162
 2309 Fit      -0.015220
 2310 Fit      -0.016381
 2311 Fit      -0.015359
 2312 Fit      -0.002695
 2313 Fit      -0.004744
 2314 Fit      -0.008222
 2315 Fit      -0.012413
 2316 Fit      -0.015868
 2317 Fit      -0.018137
 2318 Fit      -0.018906
 2319 Fit      -0.018125
 2320 Fit      -0.016009
 2321 Fit       0.001062
 2322 Fit      -0.001015
 2323 Fit      -0.004282
 2324 Fit      -0.008316
 2325 Fit      -0.012221
 2326 Fit      -0.015908
 2327 Fit      -0.018732
 2328 Fit      -0.020473
 2329 Fit      -0.021012
 2330 Fit      -0.020344
 2331 Fit      -0.018579
 2332 Fit      -0.015951
 2333 Fit       0.006296
 2334 Fit       0.005370
 2335 Fit       0.003384
 2336 Fit       0.000285
 2337 Fit      -0.003662
 2338 Fit      -0.007996
 2339 Fit      -0.011691
 2340 Fit      -0.015639
 2341 Fit      -0.018845
 2342 Fit      -0.021149
 2343 Fit      -0.022446
 2344 Fit      -0.022684
 2345 Fit      -0.021876
 2346 Fit      -0.020102
 2347 Fit      -0.017514
 2348 Fit      -0.002549
 2349 Fit      -0.007227
 2350 Fit      -0.010952
 2351 Fit      -0.015169
 2352 Fit      -0.018687
 2353 Fit      -0.021386
 2354 Fit      -0.023178
 2355 Fit      -0.024008
 2356 Fit      -0.023857
 2357 Fit      -0.022746
 2358 Fit      -0.020742
 2359 Fit      -0.017962
 2360 Fit      -0.006203
 2361 Fit      -0.010142
 2362 Fit      -0.014507
 2363 Fit      -0.018218
 2364 Fit      -0.021189
 2365 Fit      -0.023353
 2366 Fit      -0.024659
 2367 Fit      -0.025078
 2368 Fit      -0.024604
 2369 Fit      -0.023260
 2370 Fit      -0.021095
 2371 Fit      -0.018183
 2372 Fit      -0.005239
 2373 Fit      -0.009393
 2374 Fit      -0.013890
 2375 Fit      -0.017751
 2376 Fit      -0.020911
 2377 Fit      -0.023318
 2378 Fit      -0.024930
 2379 Fit      -0.025716
 2380 Fit      -0.025661
 2381 Fit      -0.024768
 2382 Fit      -0.023059
 2383 Fit      -0.020570
 2384 Fit      -0.017339
 2385 Fit      -0.004344
 2386 Fit      -0.008822
 2387 Fit      -0.013521
 2388 Fit      -0.017556
 2389 Fit      -0.020875
 2390 Fit      -0.023431
 2391 Fit      -0.025186
 2392 Fit      -0.026108
 2393 Fit      -0.026180
 2394 Fit      -0.025399
 2395 Fit      -0.023778
 2396 Fit      -0.021340
 2397 Fit      -0.018097
 2398 Fit      -0.003529
 2399 Fit      -0.008514
 2400 Fit      -0.013263
 2401 Fit      -0.017351
 2402 Fit      -0.020732
 2403 Fit      -0.023365
 2404 Fit      -0.025213
 2405 Fit      -0.026247
 2406 Fit      -0.026447
 2407 Fit      -0.025809
 2408 Fit      -0.024338
 2409 Fit      -0.022051
 2410 Fit      -0.018951
 2411 Fit      -0.003162
 2412 Fit      -0.008514
 2413 Fit      -0.013263
 2414 Fit      -0.017351
 2415 Fit      -0.020732
 2416 Fit      -0.023365
 2417 Fit      -0.025213
 2418 Fit      -0.026247
 2419 Fit      -0.026447
 2420 Fit      -0.025809
 2421 Fit      -0.024338
 2422 Fit      -0.022051
 2423 Fit      -0.018951
 2424 Fit      -0.003162
 2425 Fit      -0.008822
 2426 Fit      -0.013521
 2427 Fit      -0.017556
 2428 Fit      -0.020875
 2429 Fit      -0.023431
 2430 Fit      -0.025186
 2431 Fit      -0.026108
 2432 Fit      -0.026180
 2433 Fit      -0.025399
 2434 Fit      -0.023778
 2435 Fit      -0.021340
 2436 Fit      -0.018097
 2437 Fit      -0.003529
 2438 Fit      -0.009393
 2439 Fit      -0.013890
 2440 Fit      -0.017751
 2441 Fit      -0.020911
 2442 Fit      -0.023318
 2443 Fit      -0.024930
 2444 Fit      -0.025716
 2445 Fit      -0.025661
 2446 Fit      -0.024768
 2447 Fit      -0.023059
 2448 Fit      -0.020570
 2449 Fit      -0.017339
 2450 Fit      -0.004344
 2451 Fit      -0.010142
 2452 Fit      -0.014507
 2453 Fit      -0.018218
 2454 Fit      -0.021189
 2455 Fit      -0.023353
 2456 Fit      -0.024659
 2457 Fit      -0.025078
 2458 Fit      -0.024604
 2459 Fit      -0.023260
 2460 Fit      -0.021095
 2461 Fit      -0.018183
 2462 Fit      -0.005239
 2463 Fit      -0.010952
 2464 Fit      -0.015169
 2465 Fit      -0.018687
 2466 Fit      -0.021386
 2467 Fit      -0.023178
 2468 Fit      -0.024008
 2469 Fit      -0.023857
 2470 Fit      -0.022746
 2471 Fit      -0.020742
 2472 Fit      -0.017961
 2473 Fit      -0.006203
 2474 Fit      -0.011691
 2475 Fit      -0.015639
 2476 Fit      -0.018845
 2477 Fit      -0.021149
 2478 Fit      -0.022446
 2479 Fit      -0.022684
 2480 Fit      -0.021876
 2481 Fit      -0.020101
 2482 Fit      -0.017514
 2483 Fit      -0.002549
 2484 Fit      -0.007227
 2485 Fit      -0.012221
 2486 Fit      -0.015908
 2487 Fit      -0.018732
 2488 Fit      -0.020473
 2489 Fit      -0.021012
 2490 Fit      -0.020344
 2491 Fit      -0.018579
 2492 Fit      -0.015951
 2493 Fit       0.006296
 2494 Fit       0.005370
 2495 Fit       0.003384
 2496 Fit       0.000285
 2497 Fit      -0.003662
 2498 Fit      -0.007996
 2499 Fit      -0.012413
 2500 Fit      -0.015868
 2501 Fit      -0.018137
 2502 Fit      -0.018906
 2503 Fit      -0.018125
 2504 Fit      -0.016009
 2505 Fit       0.001062
 2506 Fit      -0.001015
 2507 Fit      -0.004282
 2508 Fit      -0.008315
 2509 Fit      -0.012162
 2510 Fit      -0.015220
 2511 Fit      -0.016381
 2512 Fit      -0.015359
 2513 Fit      -0.002695
 2514 Fit      -0.004744
 2515 Fit      -0.008222
 2516 Fit      -0.011393
 2517 Fit      -0.013431
 2518 Fit      -0.011686
 2519 Fit      -0.006326
 2520 Fit      -0.007764
 2521 Fit      -0.010070
 2522 Fit       0.007212
 2523 Fit       0.005797
 2524 Fit       0.002385
 2525 Fit       0.011268
 2526 Fit       0.010852
 2527 Fit       0.009409
 2528 Fit       0.006840
 2529 Fit       0.003051
 2530 Fit      -0.000961
 2531 Fit       0.014361
 2532 Fit       0.014424
 2533 Fit       0.013882
 2534 Fit       0.012644
 2535 Fit       0.010628
 2536 Fit       0.007751
 2537 Fit       0.003920
 2538 Fit       0.000074
 2539 Fit       0.016890
 2540 Fit       0.016886
 2541 Fit       0.016422
 2542 Fit       0.015428
 2543 Fit       0.013842
 2544 Fit       0.011596
 2545 Fit       0.008615
 2546 Fit       0.004810
 2547 Fit       0.000976
 2548 Fit       0.018748
 2549 Fit       0.018724
 2550 Fit       0.018331
 2551 Fit       0.017523
 2552 Fit       0.016254
 2553 Fit       0.014475
 2554 Fit       0.012130
 2555 Fit       0.009155
 2556 Fit       0.005470
 2557 Fit       0.001668
 2558 Fit       0.019907
 2559 Fit       0.020049
 2560 Fit       0.019866
 2561 Fit       0.019323
 2562 Fit       0.018384
 2563 Fit       0.017009
 2564 Fit       0.015152
 2565 Fit       0.012761
 2566 Fit       0.009772
 2567 Fit       0.006107
 2568 Fit       0.002101
 2569 Fit       0.020480
 2570 Fit       0.020765
 2571 Fit       0.020751
 2572 Fit       0.020422
 2573 Fit       0.019753
 2574 Fit       0.018711
 2575 Fit       0.017260
 2576 Fit       0.015358
 2577 Fit       0.012958
 2578 Fit       0.010000
 2579 Fit       0.006412
 2580 Fit       0.002248
 2581 Fit      -0.002794
 2582 Fit       0.020834
 2583 Fit       0.021037
 2584 Fit       0.020948
 2585 Fit       0.020555
 2586 Fit       0.019830
 2587 Fit       0.018745
 2588 Fit       0.017265
 2589 Fit       0.015350
 2590 Fit       0.012954
 2591 Fit       0.010022
 2592 Fit       0.006482
 2593 Fit       0.002101
 2594 Fit       0.020480
 2595 Fit       0.020765
 2596 Fit       0.020751
 2597 Fit       0.020422
 2598 Fit       0.019753
 2599 Fit       0.018711
 2600 Fit       0.017260
 2601 Fit       0.015358
 2602 Fit       0.012958
 2603 Fit       0.010000
 2604 Fit       0.006412
 2605 Fit       0.001668
 2606 Fit       0.019907
 2607 Fit       0.020049
 2608 Fit       0.019866
 2609 Fit       0.019323
 2610 Fit       0.018384
 2611 Fit       0.017009
 2612 Fit       0.015152
 2613 Fit       0.012761
 2614 Fit       0.009772
 2615 Fit       0.006107
 2616 Fit       0.000976
 2617 Fit       0.018748
 2618 Fit       0.018724
 2619 Fit       0.018331
 2620 Fit       0.017523
 2621 Fit       0.016254
 2622 Fit       0.014475
 2623 Fit       0.012130
 2624 Fit       0.009155
 2625 Fit       0.005470
 2626 Fit       0.000075
 2627 Fit       0.016890
 2628 Fit       0.016886
 2629 Fit       0.016422
 2630 Fit       0.015428
 2631 Fit       0.013842
 2632 Fit       0.011596
 2633 Fit       0.008615
 2634 Fit       0.004810
 2635 Fit      -0.000961
 2636 Fit       0.014361
 2637 Fit       0.014424
 2638 Fit       0.013882
 2639 Fit       0.012644
 2640 Fit       0.010628
 2641 Fit       0.007751
 2642 Fit       0.003920
 2643 Fit       0.011268
 2644 Fit       0.010852
 2645 Fit       0.009409
 2646 Fit       0.006840
 2647 Fit       0.003051
 2648 Fit       0.007212
 2649 Fit       0.005797
 2650 Fit       0.002385
 -----------------------------------------------------------------
 Leave Link  602 at Tue Jun 23 16:13:45 2015, MaxMem=    33554432 cpu:         0.1

 Test job not archived.
 1\1\GINC-QUAD26\FOpt\RHF\6-31G(d)\C1H4O1\ZE\23-Jun-2015\0\\#HF/6-31G* 
 SCF=tight Test Pop=MK iop(6/33=2) iop(6/42=6) opt iop(6/50=1)\\remark 
 line goes here\\0,1\C,-1.0819453701,-0.1424664822,0.0105174295\H,-0.71
 07903706,-1.1575912428,0.0305289677\H,-0.7257398502,0.3354537547,-0.89
 89726583\H,-2.1685708511,-0.1746656252,-0.0154168987\O,-0.603353942,0.
 4953996293,1.1603185777\H,-0.910799616,1.3902699663,1.174924582\\Versi
 on=ES64L-G09RevD.01\State=1-A\HF=-115.0354182\RMSD=3.026e-09\RMSF=7.30
 5e-05\Dipole=-0.4237293,0.3213444,-0.5064092\Quadrupole=-0.8050178,1.7
 979552,-0.9929375,-0.3996233,-0.4773545,0.7630578\PG=C01 [X(C1H4O1)]\\
 @


 SI MONUMENTUM REQUIRIS, CIRCUMSPICE
     -- FROM SIR CHRISTOPHER WREN'S TOMBSTONE
 Job cpu time:       0 days  0 hours  0 minutes  4.4 seconds.
 File lengths (MBytes):  RWF=      5 Int=      0 D2E=      0 Chk=      1 Scr=      1
 Normal termination of Gaussian 09 at Tue Jun 23 16:13:45 2015.
